<?xml version="1.0"?>
<VTKFile type="UnstructuredGrid"  version="0.1"  >
<UnstructuredGrid>
<Piece  NumberOfPoints="4225" NumberOfCells="8192">
<Points>
<DataArray  type="Float64"  NumberOfComponents="3"  format="ascii">0 0 0  0.015625 0 0  0.03125 0 0  0.046875 0 0  0.0625 0 0  0.078125 0 0  0.09375 0 0  0.109375 0 0  0.125 0 0  0.140625 0 0  0.15625 0 0  0.171875 0 0  0.1875 0 0  0.203125 0 0  0.21875 0 0  0.234375 0 0  0.25 0 0  0.265625 0 0  0.28125 0 0  0.296875 0 0  0.3125 0 0  0.328125 0 0  0.34375 0 0  0.359375 0 0  0.375 0 0  0.390625 0 0  0.40625 0 0  0.421875 0 0  0.4375 0 0  0.453125 0 0  0.46875 0 0  0.484375 0 0  0.5 0 0  0.515625 0 0  0.53125 0 0  0.546875 0 0  0.5625 0 0  0.578125 0 0  0.59375 0 0  0.609375 0 0  0.625 0 0  0.640625 0 0  0.65625 0 0  0.671875 0 0  0.6875 0 0  0.703125 0 0  0.71875 0 0  0.734375 0 0  0.75 0 0  0.765625 0 0  0.78125 0 0  0.796875 0 0  0.8125 0 0  0.828125 0 0  0.84375 0 0  0.859375 0 0  0.875 0 0  0.890625 0 0  0.90625 0 0  0.921875 0 0  0.9375 0 0  0.953125 0 0  0.96875 0 0  0.984375 0 0  1 0 0  0 0.015625 0  0.015625 0.015625 0  0.03125 0.015625 0  0.046875 0.015625 0  0.0625 0.015625 0  0.078125 0.015625 0  0.09375 0.015625 0  0.109375 0.015625 0  0.125 0.015625 0  0.140625 0.015625 0  0.15625 0.015625 0  0.171875 0.015625 0  0.1875 0.015625 0  0.203125 0.015625 0  0.21875 0.015625 0  0.234375 0.015625 0  0.25 0.015625 0  0.265625 0.015625 0  0.28125 0.015625 0  0.296875 0.015625 0  0.3125 0.015625 0  0.328125 0.015625 0  0.34375 0.015625 0  0.359375 0.015625 0  0.375 0.015625 0  0.390625 0.015625 0  0.40625 0.015625 0  0.421875 0.015625 0  0.4375 0.015625 0  0.453125 0.015625 0  0.46875 0.015625 0  0.484375 0.015625 0  0.5 0.015625 0  0.515625 0.015625 0  0.53125 0.015625 0  0.546875 0.015625 0  0.5625 0.015625 0  0.578125 0.015625 0  0.59375 0.015625 0  0.609375 0.015625 0  0.625 0.015625 0  0.640625 0.015625 0  0.65625 0.015625 0  0.671875 0.015625 0  0.6875 0.015625 0  0.703125 0.015625 0  0.71875 0.015625 0  0.734375 0.015625 0  0.75 0.015625 0  0.765625 0.015625 0  0.78125 0.015625 0  0.796875 0.015625 0  0.8125 0.015625 0  0.828125 0.015625 0  0.84375 0.015625 0  0.859375 0.015625 0  0.875 0.015625 0  0.890625 0.015625 0  0.90625 0.015625 0  0.921875 0.015625 0  0.9375 0.015625 0  0.953125 0.015625 0  0.96875 0.015625 0  0.984375 0.015625 0  1 0.015625 0  0 0.03125 0  0.015625 0.03125 0  0.03125 0.03125 0  0.046875 0.03125 0  0.0625 0.03125 0  0.078125 0.03125 0  0.09375 0.03125 0  0.109375 0.03125 0  0.125 0.03125 0  0.140625 0.03125 0  0.15625 0.03125 0  0.171875 0.03125 0  0.1875 0.03125 0  0.203125 0.03125 0  0.21875 0.03125 0  0.234375 0.03125 0  0.25 0.03125 0  0.265625 0.03125 0  0.28125 0.03125 0  0.296875 0.03125 0  0.3125 0.03125 0  0.328125 0.03125 0  0.34375 0.03125 0  0.359375 0.03125 0  0.375 0.03125 0  0.390625 0.03125 0  0.40625 0.03125 0  0.421875 0.03125 0  0.4375 0.03125 0  0.453125 0.03125 0  0.46875 0.03125 0  0.484375 0.03125 0  0.5 0.03125 0  0.515625 0.03125 0  0.53125 0.03125 0  0.546875 0.03125 0  0.5625 0.03125 0  0.578125 0.03125 0  0.59375 0.03125 0  0.609375 0.03125 0  0.625 0.03125 0  0.640625 0.03125 0  0.65625 0.03125 0  0.671875 0.03125 0  0.6875 0.03125 0  0.703125 0.03125 0  0.71875 0.03125 0  0.734375 0.03125 0  0.75 0.03125 0  0.765625 0.03125 0  0.78125 0.03125 0  0.796875 0.03125 0  0.8125 0.03125 0  0.828125 0.03125 0  0.84375 0.03125 0  0.859375 0.03125 0  0.875 0.03125 0  0.890625 0.03125 0  0.90625 0.03125 0  0.921875 0.03125 0  0.9375 0.03125 0  0.953125 0.03125 0  0.96875 0.03125 0  0.984375 0.03125 0  1 0.03125 0  0 0.046875 0  0.015625 0.046875 0  0.03125 0.046875 0  0.046875 0.046875 0  0.0625 0.046875 0  0.078125 0.046875 0  0.09375 0.046875 0  0.109375 0.046875 0  0.125 0.046875 0  0.140625 0.046875 0  0.15625 0.046875 0  0.171875 0.046875 0  0.1875 0.046875 0  0.203125 0.046875 0  0.21875 0.046875 0  0.234375 0.046875 0  0.25 0.046875 0  0.265625 0.046875 0  0.28125 0.046875 0  0.296875 0.046875 0  0.3125 0.046875 0  0.328125 0.046875 0  0.34375 0.046875 0  0.359375 0.046875 0  0.375 0.046875 0  0.390625 0.046875 0  0.40625 0.046875 0  0.421875 0.046875 0  0.4375 0.046875 0  0.453125 0.046875 0  0.46875 0.046875 0  0.484375 0.046875 0  0.5 0.046875 0  0.515625 0.046875 0  0.53125 0.046875 0  0.546875 0.046875 0  0.5625 0.046875 0  0.578125 0.046875 0  0.59375 0.046875 0  0.609375 0.046875 0  0.625 0.046875 0  0.640625 0.046875 0  0.65625 0.046875 0  0.671875 0.046875 0  0.6875 0.046875 0  0.703125 0.046875 0  0.71875 0.046875 0  0.734375 0.046875 0  0.75 0.046875 0  0.765625 0.046875 0  0.78125 0.046875 0  0.796875 0.046875 0  0.8125 0.046875 0  0.828125 0.046875 0  0.84375 0.046875 0  0.859375 0.046875 0  0.875 0.046875 0  0.890625 0.046875 0  0.90625 0.046875 0  0.921875 0.046875 0  0.9375 0.046875 0  0.953125 0.046875 0  0.96875 0.046875 0  0.984375 0.046875 0  1 0.046875 0  0 0.0625 0  0.015625 0.0625 0  0.03125 0.0625 0  0.046875 0.0625 0  0.0625 0.0625 0  0.078125 0.0625 0  0.09375 0.0625 0  0.109375 0.0625 0  0.125 0.0625 0  0.140625 0.0625 0  0.15625 0.0625 0  0.171875 0.0625 0  0.1875 0.0625 0  0.203125 0.0625 0  0.21875 0.0625 0  0.234375 0.0625 0  0.25 0.0625 0  0.265625 0.0625 0  0.28125 0.0625 0  0.296875 0.0625 0  0.3125 0.0625 0  0.328125 0.0625 0  0.34375 0.0625 0  0.359375 0.0625 0  0.375 0.0625 0  0.390625 0.0625 0  0.40625 0.0625 0  0.421875 0.0625 0  0.4375 0.0625 0  0.453125 0.0625 0  0.46875 0.0625 0  0.484375 0.0625 0  0.5 0.0625 0  0.515625 0.0625 0  0.53125 0.0625 0  0.546875 0.0625 0  0.5625 0.0625 0  0.578125 0.0625 0  0.59375 0.0625 0  0.609375 0.0625 0  0.625 0.0625 0  0.640625 0.0625 0  0.65625 0.0625 0  0.671875 0.0625 0  0.6875 0.0625 0  0.703125 0.0625 0  0.71875 0.0625 0  0.734375 0.0625 0  0.75 0.0625 0  0.765625 0.0625 0  0.78125 0.0625 0  0.796875 0.0625 0  0.8125 0.0625 0  0.828125 0.0625 0  0.84375 0.0625 0  0.859375 0.0625 0  0.875 0.0625 0  0.890625 0.0625 0  0.90625 0.0625 0  0.921875 0.0625 0  0.9375 0.0625 0  0.953125 0.0625 0  0.96875 0.0625 0  0.984375 0.0625 0  1 0.0625 0  0 0.078125 0  0.015625 0.078125 0  0.03125 0.078125 0  0.046875 0.078125 0  0.0625 0.078125 0  0.078125 0.078125 0  0.09375 0.078125 0  0.109375 0.078125 0  0.125 0.078125 0  0.140625 0.078125 0  0.15625 0.078125 0  0.171875 0.078125 0  0.1875 0.078125 0  0.203125 0.078125 0  0.21875 0.078125 0  0.234375 0.078125 0  0.25 0.078125 0  0.265625 0.078125 0  0.28125 0.078125 0  0.296875 0.078125 0  0.3125 0.078125 0  0.328125 0.078125 0  0.34375 0.078125 0  0.359375 0.078125 0  0.375 0.078125 0  0.390625 0.078125 0  0.40625 0.078125 0  0.421875 0.078125 0  0.4375 0.078125 0  0.453125 0.078125 0  0.46875 0.078125 0  0.484375 0.078125 0  0.5 0.078125 0  0.515625 0.078125 0  0.53125 0.078125 0  0.546875 0.078125 0  0.5625 0.078125 0  0.578125 0.078125 0  0.59375 0.078125 0  0.609375 0.078125 0  0.625 0.078125 0  0.640625 0.078125 0  0.65625 0.078125 0  0.671875 0.078125 0  0.6875 0.078125 0  0.703125 0.078125 0  0.71875 0.078125 0  0.734375 0.078125 0  0.75 0.078125 0  0.765625 0.078125 0  0.78125 0.078125 0  0.796875 0.078125 0  0.8125 0.078125 0  0.828125 0.078125 0  0.84375 0.078125 0  0.859375 0.078125 0  0.875 0.078125 0  0.890625 0.078125 0  0.90625 0.078125 0  0.921875 0.078125 0  0.9375 0.078125 0  0.953125 0.078125 0  0.96875 0.078125 0  0.984375 0.078125 0  1 0.078125 0  0 0.09375 0  0.015625 0.09375 0  0.03125 0.09375 0  0.046875 0.09375 0  0.0625 0.09375 0  0.078125 0.09375 0  0.09375 0.09375 0  0.109375 0.09375 0  0.125 0.09375 0  0.140625 0.09375 0  0.15625 0.09375 0  0.171875 0.09375 0  0.1875 0.09375 0  0.203125 0.09375 0  0.21875 0.09375 0  0.234375 0.09375 0  0.25 0.09375 0  0.265625 0.09375 0  0.28125 0.09375 0  0.296875 0.09375 0  0.3125 0.09375 0  0.328125 0.09375 0  0.34375 0.09375 0  0.359375 0.09375 0  0.375 0.09375 0  0.390625 0.09375 0  0.40625 0.09375 0  0.421875 0.09375 0  0.4375 0.09375 0  0.453125 0.09375 0  0.46875 0.09375 0  0.484375 0.09375 0  0.5 0.09375 0  0.515625 0.09375 0  0.53125 0.09375 0  0.546875 0.09375 0  0.5625 0.09375 0  0.578125 0.09375 0  0.59375 0.09375 0  0.609375 0.09375 0  0.625 0.09375 0  0.640625 0.09375 0  0.65625 0.09375 0  0.671875 0.09375 0  0.6875 0.09375 0  0.703125 0.09375 0  0.71875 0.09375 0  0.734375 0.09375 0  0.75 0.09375 0  0.765625 0.09375 0  0.78125 0.09375 0  0.796875 0.09375 0  0.8125 0.09375 0  0.828125 0.09375 0  0.84375 0.09375 0  0.859375 0.09375 0  0.875 0.09375 0  0.890625 0.09375 0  0.90625 0.09375 0  0.921875 0.09375 0  0.9375 0.09375 0  0.953125 0.09375 0  0.96875 0.09375 0  0.984375 0.09375 0  1 0.09375 0  0 0.109375 0  0.015625 0.109375 0  0.03125 0.109375 0  0.046875 0.109375 0  0.0625 0.109375 0  0.078125 0.109375 0  0.09375 0.109375 0  0.109375 0.109375 0  0.125 0.109375 0  0.140625 0.109375 0  0.15625 0.109375 0  0.171875 0.109375 0  0.1875 0.109375 0  0.203125 0.109375 0  0.21875 0.109375 0  0.234375 0.109375 0  0.25 0.109375 0  0.265625 0.109375 0  0.28125 0.109375 0  0.296875 0.109375 0  0.3125 0.109375 0  0.328125 0.109375 0  0.34375 0.109375 0  0.359375 0.109375 0  0.375 0.109375 0  0.390625 0.109375 0  0.40625 0.109375 0  0.421875 0.109375 0  0.4375 0.109375 0  0.453125 0.109375 0  0.46875 0.109375 0  0.484375 0.109375 0  0.5 0.109375 0  0.515625 0.109375 0  0.53125 0.109375 0  0.546875 0.109375 0  0.5625 0.109375 0  0.578125 0.109375 0  0.59375 0.109375 0  0.609375 0.109375 0  0.625 0.109375 0  0.640625 0.109375 0  0.65625 0.109375 0  0.671875 0.109375 0  0.6875 0.109375 0  0.703125 0.109375 0  0.71875 0.109375 0  0.734375 0.109375 0  0.75 0.109375 0  0.765625 0.109375 0  0.78125 0.109375 0  0.796875 0.109375 0  0.8125 0.109375 0  0.828125 0.109375 0  0.84375 0.109375 0  0.859375 0.109375 0  0.875 0.109375 0  0.890625 0.109375 0  0.90625 0.109375 0  0.921875 0.109375 0  0.9375 0.109375 0  0.953125 0.109375 0  0.96875 0.109375 0  0.984375 0.109375 0  1 0.109375 0  0 0.125 0  0.015625 0.125 0  0.03125 0.125 0  0.046875 0.125 0  0.0625 0.125 0  0.078125 0.125 0  0.09375 0.125 0  0.109375 0.125 0  0.125 0.12
[...]
<PointData  Scalars="f_9634"> 
<DataArray  type="Float64"  Name="f_9634"  format="ascii">3.2141083125837761e-01  3.3565646900284640e-01  3.6038481844868453e-01  3.8295693199510611e-01  4.0082803300481884e-01  4.1277909094516640e-01  4.1784851612461893e-01  4.1536940094943059e-01  4.0506663591211722e-01  3.8712125941954684e-01  3.6219203053939136e-01  3.3138705125485779e-01  2.9618390370908676e-01  2.5830488415165503e-01  2.1956192644414521e-01  1.8169183299693298e-01  1.4620491323430068e-01  1.1426820578952453e-01  8.6638308572616451e-02  6.3649738691446911e-02  4.5254779203812406e-02  3.1102263671515265e-02  2.0637582218537957e-02  1.3205260292236199e-02  8.1384659071633662e-03  4.8254426951658573e-03  2.7493450014424042e-03  1.5035753195019206e-03  7.8838843274713153e-04  3.9591227770976122e-04  1.9021084869404805e-04  8.7335721797861379e-05  3.8284166176492110e-05  1.6005640314461846e-05  6.3754688501459849e-06  2.4170955506181505e-06  8.7130296416485408e-07  2.9831599775132995e-07  9.6902156792098652e-08  2.9828195961012745e-08  8.6896434627675212e-09  2.3924695803899287e-09  6.2154732046997998e-10  1.5209091815637380e-10  3.4980752675835989e-11  7.5438183264451850e-12  1.5210034781184286e-12  2.8571506760136384e-13  4.9792248877758765e-14  8.0086395299343833e-15  1.1812169108721428e-15  1.5850036140018065e-16  1.9177723900730304e-17  2.0909195834080018e-18  2.2813653343113053e-19  5.0352309460944455e-20  3.5730778724072215e-20  3.4701735623742340e-20  3.4637945756072138e-20  3.4634149061959107e-20  3.4633937425058924e-20  3.4633933096228528e-20  3.4633933978565755e-20  3.4633933989565084e-20  3.4633933967282345e-20  3.1101875415095032e-01  3.2580265787039253e-01  3.5316735246951553e-01  3.7856014802658677e-01  3.9963973794133795e-01  4.1517328515661472e-01  4.2405005675534752e-01  4.2540215824583055e-01  4.1872881799297579e-01  4.0398209083533787e-01  3.8161255883091261e-01  3.5256524282483309e-01  3.1822018525834422e-01  2.8028052952779925e-01  2.4061998292258013e-01  2.0110933664009337e-01  1.6344634266318167e-01  1.2901334321310096e-01  9.8782261628383869e-02  7.3277787804915825e-02  5.2598813446955169e-02  3.6487945980136854e-02  2.4431631249089834e-02  1.5770535873902113e-02  9.8015775939578661e-03  5.8582845516881796e-03  3.3631443049766847e-03  1.8522692798065017e-03  9.7754703438977754e-04  4.9379451357771083e-04  2.3847279581305314e-04  1.0998474679289576e-04  4.8389467986307767e-05  2.0287199572639912e-05  8.0960891030572758e-06  3.0721030996887480e-06  1.1071828484629600e-06  3.7855094760063112e-07  1.2263717700398698e-07  3.7596311110413701e-08  1.0891114267402729e-08  2.9765273770892844e-09  7.6607105001385501e-10  1.8528321237174869e-10  4.2008206841159801e-11  8.9016984457271964e-12  1.7566275294151469e-12  3.2136887139588959e-13  5.4197276231193501e-14  8.3638656726645544e-15  1.1696273271869478e-15  1.4625066568683867e-16  1.6059051337363995e-17  1.5281059163094630e-18  1.4694878028148342e-19  4.0740495531225331e-20  3.4800518274575883e-20  3.4629201637015487e-20  3.4633324110575997e-20  3.4633864518517344e-20  3.4633915613183403e-20  3.4633931824633980e-20  3.4633934065637090e-20  3.4633934007287997e-20  3.4633933960265617e-20  2.9074468989408547e-01  3.0638861577237086e-01  3.3729786147784152e-01  3.6728638674517528e-01  3.9405197919175600e-01  4.1617594575805839e-01  4.3225746426519257e-01  4.4106419564138355e-01  4.4167029795689161e-01  4.3357502298034012e-01  4.1679380560183965e-01  3.9190358965703748e-01  3.6002884251716971e-01  3.2276311736649466e-01  2.8203140003854210e-01  2.3990922796154501e-01  1.9842333276134730e-01  1.5936303115945827e-01  1.2413029687297364e-01  9.3649311784278752e-02  6.8344816814834647e-02  4.8185507698507206e-02  3.2777259534841202e-02  2.1483811852200427e-02  1.3551059450713152e-02  8.2149418764368241e-03  4.7803354069025517e-03  2.6668397178523534e-03  1.4245975968391973e-03  7.2782550180544938e-04  3.5521923228080374e-04  1.6542659836183064e-04  7.3429338177530661e-05  3.1032264883719719e-05  1.2472881556982503e-05  4.7627892246286190e-06  1.7259406547308282e-06  5.9289754283256028e-07  1.9285244878875393e-07  5.9325142329544987e-08  1.7236946795689814e-08  4.7236839609655032e-09  1.2190704724469124e-09  2.9577084638736707e-10  6.7331525240532551e-11  1.4350531645391836e-11  2.8565026272830012e-12  5.2957596320260526e-13  9.1171292320269120e-14  1.4531045497130992e-14  2.1381163031255190e-15  2.8992314792752619e-16  3.6261170966106181e-17  4.2242981207259034e-18  4.8717935245657049e-19  8.0840983821290033e-20  3.9115167311001677e-20  3.5038540464992128e-20  3.4665983842037241e-20  3.4635943521917751e-20  3.4634024271341686e-20  3.4633939160009665e-20  3.4633934844765994e-20  3.4633934036937117e-20  3.4633933932606783e-20  2.6759385958854565e-01  2.8427309145183627e-01  3.1797490802139194e-01  3.5169508863342946e-01  3.8333196518564305e-01  4.1139248311976295e-01  4.3428238615719389e-01  4.5047054854302743e-01  4.5863840492135249e-01  4.5782852029008320e-01  4.4757886294772503e-01  4.2801994274450050e-01  3.9991462151102414e-01  3.6462678457827391e-01  3.2401529849646959e-01  2.8026244497350750e-01  2.3565868363961492e-01  1.9237506470104868e-01  1.5225819269021387e-01  1.1667892461758422e-01  8.6455460730406414e-02  6.1856591647846751e-02  4.2675355177028640e-02  2.8351154092966568e-02  1.8112335628615937e-02  1.1112220113448930e-02  6.5383658518072905e-03  3.6847451103931565e-03  1.9863385586515276e-03  1.0229519470603325e-03  5.0265847547973882e-04  2.3538401173346847e-04  1.0491721181821069e-04  4.4459932921706191e-05  1.7890916061731377e-05  6.8284966943985866e-06  2.4690155482326669e-06  8.4467027247716213e-07  2.7305031943177670e-07  8.3285850130922502e-08  2.3932465588431887e-08  6.4671616207540885e-09  1.6400060768160725e-09  3.8931687131164228e-10  8.6250899290770821e-11  1.7764560993673230e-11  3.3844269194333352e-12  5.9231199547036621e-13  9.4267848501689795e-14  1.3425450116339960e-14  1.6615730686679127e-15  1.6728391922213891e-16  1.0907552063162870e-17  -3.0657833734560178e-19  -2.3283956437649336e-19  -2.2091427185254972e-20  2.5855326447081960e-20  3.3510868900621139e-20  3.4511543585112612e-20  3.4622717539047455e-20  3.4633118451159178e-20  3.4633892547988398e-20  3.4633932578462587e-20  3.4633933796098066e-20  3.4633933881522262e-20  2.4215104460942166e-01  2.5939063005763546e-01  2.9479540725768810e-01  3.3124255335375341e-01  3.6689785916693141e-01  4.0026642927517375e-01  4.2964014152210916e-01  4.5325542266959551e-01  4.6944169637841549e-01  4.7678795194802465e-01  4.7431259118569324e-01  4.6161182082936025e-01  4.3896064191195605e-01  4.0734348962622197e-01  3.6840008051110990e-01  3.2428530094556512e-01  2.7745769521843733e-01  2.3042580884019201e-01  1.8549147821244219e-01  1.4453108185955732e-01  1.0884863438912178e-01  7.9119793264504246e-02  5.5427063855907517e-02  3.7368682243875607e-02  2.4211425746271172e-02  1.5053671343605468e-02  8.9694227981213532e-03  5.1143093967921669e-03  2.7869053397305823e-03  1.4494251636128488e-03  7.1853459675465324e-04  3.3910358402816540e-04  1.5216624957225009e-04  6.4846474789046602e-05  2.6213618991652075e-05  1.0040063617667702e-05  3.6392489463711708e-06  1.2469357065740834e-06  4.0337698775412299e-07  1.2304631197632045e-07  3.5346037538307827e-08  9.5479709226244861e-09  2.4216701787548259e-09  5.7575336103510226e-10  1.2809000630354443e-10  2.6617923829691934e-11  5.1580722140848697e-12  9.3094957271749945e-13  1.5647616568921228e-13  2.4549075965565025e-14  3.6190116103710448e-15  5.0832062436908387e-16  6.9602934540212040e-17  9.5688824660112053e-18  1.3668942700504163e-18  2.2341055800429581e-19  6.1010750709882433e-20  3.8140539469399259e-20  3.5063326883539806e-20  3.4680984675313517e-20  3.4638395823877620e-20  3.4634281027097768e-20  3.4633953876565000e-20  3.4633934662056529e-20  3.4633934045863441e-20  2.1527622445673855e-01  2.3257517133383018e-01  2.6863659751873115e-01  3.0674681305869445e-01  3.4539110924093702e-01  3.8316377889582759e-01  4.1834599482540663e-01  4.4903931069092895e-01  4.7329964323638463e-01  4.8930727333004209e-01  4.9556019727923306e-01  4.9106710180666624e-01  4.7551064876400423e-01  4.4935026805872053e-01  4.1383850830697361e-01  3.7093660891844321e-01  3.2313197399834104e-01  2.7317940727011047e-01  2.2380472078850916e-01  1.7741893493246588e-01  1.3589043395633454e-01  1.0041057460442337e-01  7.1468094088100384e-02  4.8924603144728615e-02  3.2163798318324215e-02  2.0275890528788997e-02  1.2238288376915542e-02  7.0624525620812577e-03  3.8910175008792045e-03  2.0437921518291213e-03  1.0220799750392988e-03  4.8599545591668892e-04  2.1944130166898183e-04  9.3971483035032693e-05  3.8117780049538371e-05  1.4627816177453436e-05  5.3041449465897653e-06  1.8150404626740072e-06  5.8535351814339642e-07  1.7766254100755865e-07  5.0668927979548514e-08  1.3554646678249193e-08  3.3942160995436216e-09  7.9362717377570032e-10  1.7273213126268560e-10  3.4854445601442818e-11  6.4843997132519051e-12  1.1032454336964811e-12  1.6940620474452862e-13  2.2906748569996804e-14  2.5779178089076165e-15  1.9936096494801512e-16  -2.9653984541695202e-18  -5.3663270931994890e-18  -1.4287445054761566e-18  -2.5999042925604942e-19  -1.6569272308228458e-20  2.6609195276703467e-20  3.3487591534582052e-20  3.4485481439485697e-20  3.4616783998166154e-20  3.4632213882697132e-20  3.4633790876884867e-20  3.4633925058422750e-20  3.4633933380473272e-20  1.8787800553177295e-01  2.0475601133710711e-01  2.4044139995008154e-01  2.7907957572768521e-01  3.1953240600352179e-01  3.6057516920492744e-01  4.0058629878447027e-01  4.3764699038943122e-01  4.6964757860040751e-01  4.9444400025987129e-01  5.1005757010639363e-01  5.1489880383193631e-01  5.0798626799344426e-01  4.8912472194091711e-01  4.5900621435761035e-01  4.1920522617641809e-01  3.7205461728742717e-01  3.2041083983324531e-01  2.6734005133881389e-01  2.1577538878608782e-01  1.6820405523265652e-01  1.2643768083040854e-01  9.1501192395700925e-02  6.3648848620925846e-02  4.2488668681642146e-02  2.7175947531467379e-02  1.6628142035734369e-02  9.7180690400593354e-03  5.4167316479225075e-03  2.8752526912614960e-03  1.4513575047882391e-03  6.9571222526346459e-04  3.1626956918338536e-04  1.3617279890197975e-04  5.5459386939612911e-05  2.1338668399063254e-05  7.7468606230043346e-06  2.6503517413576908e-06  8.5337156002771028e-07  2.5824956845930059e-07  7.3346031738904646e-08  1.9519227528183445e-08  4.8589494623514885e-09  1.1292331852376995e-09  2.4450187000721585e-10  4.9215206744732068e-11  9.1912176208926835e-12  1.5907225732605072e-12  2.5541245511413827e-13  3.8294998629267342e-14  5.4578846126366944e-15  7.6712352351428687e-16  1.1236746366147245e-16  1.7968344045288949e-17  3.1424553997007122e-18  5.9185768029146065e-19  1.3295021062497334e-19  5.1173479660351965e-20  3.7242581592085504e-20  3.5015415566481015e-20  3.4685041566271496e-20  3.4640100128072259e-20  3.4634586823959057e-20  3.4633990936697747e-20  3.4633941291186981e-20  1.6083490543897558e-01  1.7685892838420647e-01  2.1120347220298125e-01  2.4924673068983669e-01  2.9026465286411618e-01  3.3328885930376895e-01  3.7689758622860059e-01  4.1927453288827782e-01  4.5827517256758593e-01  4.9155218714412119e-01  5.1674136226492817e-01  5.3169633862297061e-01  5.3474783137974691e-01  5.2495108018271253e-01  5.0227805412872439e-01  4.6771174436849511e-01  4.2321092937317134e-01  3.7153481580613013e-01  3.1594447159697731e-01  2.5982559841752245e-01  2.0629716793544878e-01  1.5787609447344270e-01  1.1625648164189482e-01  8.2235454684579309e-02  5.5783605853741147e-02  3.6226699370203522e-02  2.2485534461801803e-02  1.3317403800056010e-02  7.5142027233463813e-03  4.0328923226712445e-03  2.0557229741108248e-03  9.9378474520832381e-04  4.5497446052544766e-04  1.9699537799213254e-04  8.0560801170141122e-05  3.1076105053541914e-05  1.1292900368684082e-05  3.8609717017794318e-06  1.2402770199044969e-06  3.7381571398872087e-07  1.0554716730520722e-07  2.7870328482518972e-08  6.8689630547672652e-09  1.5764775389958556e-09  3.3597550018150760e-10  6.6252436652294341e-11  1.2031010768188759e-11  1.9980876064684488e-12  3.0009496991695805e-13  3.9886502671078797e-14  4.4501867831311187e-15  3.4387724358160678e-16  -6.9540202291152602e-18  -1.0863218635345582e-17  -3.2144604303517358e-18  -7.1415312506579072e-19  -1.1860154226018646e-19  5.7406422727948600e-21  2.9566891153167346e-20  3.3807490403482214e-20  3.4509107169843161e-20  3.4616615098048077e-20  3.4631756052948976e-20  3.4633695990840143e-20  3.4633889156850121e-20  1.3494252364387019e-01  1.4975163857869750e-01  1.8191670737691321e-01  2.1832836266977704e-01  2.5868481559388995e-01  3.0232740657977270e-01  3.4812259074189195e-01  3.9447598983646148e-01  4.3934994002122846e-01  4.8034280919856731e-01  5.1484007102320728e-01  5.4023573098193056e-01  5.5420875052697982e-01  5.5502321941290067e-01  5.4180700541811844e-01  5.1475601853968589e-01  4.7521432171645900e-01  4.2559644186688039e-01  3.6914626214447782e-01  3.0956148407478079e-01  2.5054503042393439e-01  1.9536501572204065e-01  1.4650553421760362e-01  1.0546966856445249e-01  7.2759127185060446e-02  4.8012898795114438e-02  3.0253222619424650e-02  1.8170805775541574e-02  1.0385514496563109e-02  5.6391814071881825e-03  2.9043206006687913e-03  1.4165919597534133e-03  6.5339157303330822e-04  2.8458501372190562e-04  1.1688610136315197e-04  4.5211094967478425e-05  1.6446990632356441e-05  5.6197152231894622e-06  1.8011198097454010e-06  5.4070077539250906e-07  1.5180877647755174e-07  3.9795572578681134e-08  9.7219498614075228e-09  2.2086274403781516e-09  4.6545724681414382e-10  9.0746421692249585e-11  1.6318925776651527e-11  2.6995576993523654e-12  4.1033567478174036e-13  5.7544467858919059e-14  7.5850609670361076e-15  9.8982183730983644e-16  1.4124625042586751e-16  2.4195755542271298e-17  4.8980227576665683e-18  1.0784468907751811e-18  2.5618694136425739e-19  7.9590854559958367e-20  4.3243246346346590e-20  3.6180429743412732e-20  3.4893267280725914e-20  3.4674309176799901e-20  3.4639726645590832e-20  3.4634678373842323e-20  3.4634112780286484e-20  1.1086805070259670e-01  1.2419158667445276e-01  1.5351094573016352e-01  1.8740381368396944e-01  2.2596848264556996e-01  2.6888305531725509e-01  3.1536681752314372e-01  3.6415023631221372e-01  4.1344083881029958e-01  4.6094605202667649e-01  5.0397082379342395e-01  5.3960009891776262e-01  5.6496338432289184e-01  5.7756081374285184e-01  5.7561053524350658e-01  5.5836075642152416e-01  5.2630226822451509e-01  4.8122393399159324e-01  4.2607679409587135e-01  3.6464957829999201e-01  3.0110152550765795e-01  2.3943545824853232e-01  1.8301268302443413e-01  1.3420358811493141e-01  9.4234258276630983e-02  6.3239751162750546e-02  4.0484750191431024e-02  2.4677980253997287e-02  1.4297492811097722e-02  7.8592374566448728e-03  4.0920011765776566e-03  2.0147417831796050e-03  9.3660133018170903e-04  4.1048235326062929e-04  1.6936260164670324e-04  6.5693740743993985e-05  2.3923655351493645e-05  8.1685462486354787e-06  2.6114511374575829e-06  7.8058129327479294e-07  2.1781391237108354e-07  5.6642885912633127e-08  1.3701196435283448e-08  3.0757484236497453e-09  6.3909833918277465e-10  1.2252102977771216e-10  2.1584099921077069e-11  3.4756693294427239e-12  5.0765178906094140e-13  6.6346464977137298e-14  7.5196024061506488e-15  6.6636692516558346e-16  2.0955429842497390e-17  -1.0478845721796365e-17  -4.0941656666086627e-18  -1.0963187546262971e-18  -2.3877240707811870e-19  -2.6575761378612577e-20  2.1796298131135671e-20  3.2106813550529709e-20  3.4167613563016329e-20  3.4553518030445264e-20  3.4621034409004268e-20  3.4632047147783008e-20  3.4633395886737882e-20  8.9117491602535570e-02  1.0078469441310521e-01  1.2679430119312760e-01  1.5747954739254058e-01  1.9328929938169984e-01  2.3423678996834707e-01  2.7992775356833494e-01  3.2949247130397014e-01  3.8150352344479260e-01  4.3393837493981768e-01  4.8421033641710548e-01  5.2928889740572083e-01  5.6592106335316694e-01  5.9094849982548181e-01  6.0169277792063836e-01  5.9635690958215459e-01  5.7437215239265327e-01  5.3661236739185691e-01  4.8541032827249142e-01  4.2434326863409189e-01  3.5780383649000419e-01  2.9042563782320752e-01  2.2647347741024593e-01  1.6932223113799563e-01  1.2112765749155660e-01  8.2742001621066472e-02  5.3863039473151068e-02  3.3348838253605968e-02  1.9600109153067084e-02  1.0914718867045134e-02  5.7485893583738160e-03  2.8586201740339514e-03  1.3399387004247685e-03  5.9111016268604286e-04  2.4505348915932054e-04  9.5333011634876646e-05  3.4754871888331620e-05  1.1857305472274651e-05  3.7805593499758701e-06  1.1248744283924289e-06  3.1186294162836453e-07  8.0426732189266220e-08  1.9256744089343635e-08  4.2712289281232880e-09  8.7537232378650925e-10  1.6527115021437243e-10  2.8645842398338298e-11  4.5408606410365930e-12  6.5598431991280588e-13  8.6263629320931625e-14  1.0411567191874887e-14  1.1991362099734192e-15  1.4786601678024977e-16  2.3506537235958034e-17  5.0551541424179287e-18  1.2737028554644443e-18  3.4424721441110471e-19  1.0906949470843393e-19  5.1586961842520091e-20  3.8273303526148930e-20  3.5368559797927843e-20  3.4773072005060014e-20  3.4658589322045721e-20  3.4637968240238567e-20  3.4635252325160275e-20  7.0018555869042751e-02  7.9959195759190596e-02  1.0240818203639178e-01  1.2942504474874220e-01  1.6173846487892102e-01  1.9966749845212012e-01  2.4320367546326258e-01  2.9191575847787382e-01  3.4482900812878875e-01  4.0033136011338899e-01  4.5613253424017242e-01  5.0930542962397507e-01  5.5643526110812680e-01  5.9388925521596281e-01  6.1819806455613979e-01  6.2651156205003522e-01  6.1706200454520910e-01  5.8954546744509406e-01  5.4532781818351606e-01  4.8740179569195585e-01  4.2006799626027641e-01  3.4837638211277688e-01  2.7742900363645523e-01  2.1168743342356336e-01  1.5443246089874868e-01  1.0748384897919280e-01  7.1215931976491953e-02  4.4825305456035039e-02  2.6747672661925861e-02  1.5100741161069384e-02  8.0505785050061385e-03  4.0455550073274652e-03  1.9129258958193976e-03  8.4971938341327224e-04  3.5402812821394504e-04  1.3814855246386116e-04  5.0418303788349061e-05  1.7185583092168403e-05  5.4635387055061314e-06  1.6176971911745700e-06  4.4542209437125682e-07  1.1385914807382316e-07  2.6968652669865815e-08  5.9059438476488148e-09  1.1927100702863764e-09  2.2144434408778954e-10  3.7660882013654510e-11  5.8411614677563585e-12  8.2168237540452105e-13  1.0403166142023495e-13  1.1686259626938609e-14  1.1177096052194113e-15  7.4711107266661892e-17  -2.9979886970803473e-18  -3.0628369975520291e-18  -1.0252569449463468e-18  -2.6883621633461991e-19  -4.5437642936767302e-20  1.4786636628354155e-20  2.9997053719543742e-20  3.3613377970552850e-20  3.4422638480421433e-20  3.4592866968187101e-20  3.4626492928582278e-20  3.4631203082872057e-20  5.3720048506303207e-02  6.1956499971457198e-02  8.0799229167097655e-02  1.0392320079854629e-01  1.3225315023008294e-01  1.6636140059392202e-01  2.0659147859988336e-01  2.5294912480639825e-01  3.0495747573151655e-01  3.6151809804349794e-01  4.2080248516709950e-01  4.8020746299118561e-01  5.3641061557238545e-01  5.8555614633210529e-01  6.2358500707112430e-01  6.4669509366018629e-01  6.5188107734932632e-01  6.3746694732260234e-01  6.0351944038673588e-01  5.5202999285154508e-01  4.8678529604714177e-01  4.1291095020607138e-01  3.3615518141121303e-01  2.6205516043953392e-01  1.9516916457776376e-01  1.3854461586874861e-01  9.3525230108280455e-02  5.9902396637933404e-02  3.6322440033228015e-02  2.0806170006759526e-02  1.1235840549751153e-02  5.7091322085351011e-03  2.7245136931404721e-03  1.2190315329751703e-03  5.1056144753113756e-04  1.9986205396547020e-04  7.3019222117258275e-05  2.4863631082801914e-05  7.8797595381698893e-06  2.3209613690158161e-06  6.3441957594364307e-07  1.6066498337263868e-07  3.7626125992852719e-08  8.1309630569568974e-09  1.6172553072660312e-09  2.9519340410156601e-10  4.9274086397623984e-11  7.4920161623448180e-12  1.03327513730669