<?xml version="1.0"?>
<VTKFile type="UnstructuredGrid"  version="0.1"  >
<UnstructuredGrid>
<Piece  NumberOfPoints="4225" NumberOfCells="8192">
<Points>
<DataArray  type="Float64"  NumberOfComponents="3"  format="ascii">0 0 0  0.015625 0 0  0.03125 0 0  0.046875 0 0  0.0625 0 0  0.078125 0 0  0.09375 0 0  0.109375 0 0  0.125 0 0  0.140625 0 0  0.15625 0 0  0.171875 0 0  0.1875 0 0  0.203125 0 0  0.21875 0 0  0.234375 0 0  0.25 0 0  0.265625 0 0  0.28125 0 0  0.296875 0 0  0.3125 0 0  0.328125 0 0  0.34375 0 0  0.359375 0 0  0.375 0 0  0.390625 0 0  0.40625 0 0  0.421875 0 0  0.4375 0 0  0.453125 0 0  0.46875 0 0  0.484375 0 0  0.5 0 0  0.515625 0 0  0.53125 0 0  0.546875 0 0  0.5625 0 0  0.578125 0 0  0.59375 0 0  0.609375 0 0  0.625 0 0  0.640625 0 0  0.65625 0 0  0.671875 0 0  0.6875 0 0  0.703125 0 0  0.71875 0 0  0.734375 0 0  0.75 0 0  0.765625 0 0  0.78125 0 0  0.796875 0 0  0.8125 0 0  0.828125 0 0  0.84375 0 0  0.859375 0 0  0.875 0 0  0.890625 0 0  0.90625 0 0  0.921875 0 0  0.9375 0 0  0.953125 0 0  0.96875 0 0  0.984375 0 0  1 0 0  0 0.015625 0  0.015625 0.015625 0  0.03125 0.015625 0  0.046875 0.015625 0  0.0625 0.015625 0  0.078125 0.015625 0  0.09375 0.015625 0  0.109375 0.015625 0  0.125 0.015625 0  0.140625 0.015625 0  0.15625 0.015625 0  0.171875 0.015625 0  0.1875 0.015625 0  0.203125 0.015625 0  0.21875 0.015625 0  0.234375 0.015625 0  0.25 0.015625 0  0.265625 0.015625 0  0.28125 0.015625 0  0.296875 0.015625 0  0.3125 0.015625 0  0.328125 0.015625 0  0.34375 0.015625 0  0.359375 0.015625 0  0.375 0.015625 0  0.390625 0.015625 0  0.40625 0.015625 0  0.421875 0.015625 0  0.4375 0.015625 0  0.453125 0.015625 0  0.46875 0.015625 0  0.484375 0.015625 0  0.5 0.015625 0  0.515625 0.015625 0  0.53125 0.015625 0  0.546875 0.015625 0  0.5625 0.015625 0  0.578125 0.015625 0  0.59375 0.015625 0  0.609375 0.015625 0  0.625 0.015625 0  0.640625 0.015625 0  0.65625 0.015625 0  0.671875 0.015625 0  0.6875 0.015625 0  0.703125 0.015625 0  0.71875 0.015625 0  0.734375 0.015625 0  0.75 0.015625 0  0.765625 0.015625 0  0.78125 0.015625 0  0.796875 0.015625 0  0.8125 0.015625 0  0.828125 0.015625 0  0.84375 0.015625 0  0.859375 0.015625 0  0.875 0.015625 0  0.890625 0.015625 0  0.90625 0.015625 0  0.921875 0.015625 0  0.9375 0.015625 0  0.953125 0.015625 0  0.96875 0.015625 0  0.984375 0.015625 0  1 0.015625 0  0 0.03125 0  0.015625 0.03125 0  0.03125 0.03125 0  0.046875 0.03125 0  0.0625 0.03125 0  0.078125 0.03125 0  0.09375 0.03125 0  0.109375 0.03125 0  0.125 0.03125 0  0.140625 0.03125 0  0.15625 0.03125 0  0.171875 0.03125 0  0.1875 0.03125 0  0.203125 0.03125 0  0.21875 0.03125 0  0.234375 0.03125 0  0.25 0.03125 0  0.265625 0.03125 0  0.28125 0.03125 0  0.296875 0.03125 0  0.3125 0.03125 0  0.328125 0.03125 0  0.34375 0.03125 0  0.359375 0.03125 0  0.375 0.03125 0  0.390625 0.03125 0  0.40625 0.03125 0  0.421875 0.03125 0  0.4375 0.03125 0  0.453125 0.03125 0  0.46875 0.03125 0  0.484375 0.03125 0  0.5 0.03125 0  0.515625 0.03125 0  0.53125 0.03125 0  0.546875 0.03125 0  0.5625 0.03125 0  0.578125 0.03125 0  0.59375 0.03125 0  0.609375 0.03125 0  0.625 0.03125 0  0.640625 0.03125 0  0.65625 0.03125 0  0.671875 0.03125 0  0.6875 0.03125 0  0.703125 0.03125 0  0.71875 0.03125 0  0.734375 0.03125 0  0.75 0.03125 0  0.765625 0.03125 0  0.78125 0.03125 0  0.796875 0.03125 0  0.8125 0.03125 0  0.828125 0.03125 0  0.84375 0.03125 0  0.859375 0.03125 0  0.875 0.03125 0  0.890625 0.03125 0  0.90625 0.03125 0  0.921875 0.03125 0  0.9375 0.03125 0  0.953125 0.03125 0  0.96875 0.03125 0  0.984375 0.03125 0  1 0.03125 0  0 0.046875 0  0.015625 0.046875 0  0.03125 0.046875 0  0.046875 0.046875 0  0.0625 0.046875 0  0.078125 0.046875 0  0.09375 0.046875 0  0.109375 0.046875 0  0.125 0.046875 0  0.140625 0.046875 0  0.15625 0.046875 0  0.171875 0.046875 0  0.1875 0.046875 0  0.203125 0.046875 0  0.21875 0.046875 0  0.234375 0.046875 0  0.25 0.046875 0  0.265625 0.046875 0  0.28125 0.046875 0  0.296875 0.046875 0  0.3125 0.046875 0  0.328125 0.046875 0  0.34375 0.046875 0  0.359375 0.046875 0  0.375 0.046875 0  0.390625 0.046875 0  0.40625 0.046875 0  0.421875 0.046875 0  0.4375 0.046875 0  0.453125 0.046875 0  0.46875 0.046875 0  0.484375 0.046875 0  0.5 0.046875 0  0.515625 0.046875 0  0.53125 0.046875 0  0.546875 0.046875 0  0.5625 0.046875 0  0.578125 0.046875 0  0.59375 0.046875 0  0.609375 0.046875 0  0.625 0.046875 0  0.640625 0.046875 0  0.65625 0.046875 0  0.671875 0.046875 0  0.6875 0.046875 0  0.703125 0.046875 0  0.71875 0.046875 0  0.734375 0.046875 0  0.75 0.046875 0  0.765625 0.046875 0  0.78125 0.046875 0  0.796875 0.046875 0  0.8125 0.046875 0  0.828125 0.046875 0  0.84375 0.046875 0  0.859375 0.046875 0  0.875 0.046875 0  0.890625 0.046875 0  0.90625 0.046875 0  0.921875 0.046875 0  0.9375 0.046875 0  0.953125 0.046875 0  0.96875 0.046875 0  0.984375 0.046875 0  1 0.046875 0  0 0.0625 0  0.015625 0.0625 0  0.03125 0.0625 0  0.046875 0.0625 0  0.0625 0.0625 0  0.078125 0.0625 0  0.09375 0.0625 0  0.109375 0.0625 0  0.125 0.0625 0  0.140625 0.0625 0  0.15625 0.0625 0  0.171875 0.0625 0  0.1875 0.0625 0  0.203125 0.0625 0  0.21875 0.0625 0  0.234375 0.0625 0  0.25 0.0625 0  0.265625 0.0625 0  0.28125 0.0625 0  0.296875 0.0625 0  0.3125 0.0625 0  0.328125 0.0625 0  0.34375 0.0625 0  0.359375 0.0625 0  0.375 0.0625 0  0.390625 0.0625 0  0.40625 0.0625 0  0.421875 0.0625 0  0.4375 0.0625 0  0.453125 0.0625 0  0.46875 0.0625 0  0.484375 0.0625 0  0.5 0.0625 0  0.515625 0.0625 0  0.53125 0.0625 0  0.546875 0.0625 0  0.5625 0.0625 0  0.578125 0.0625 0  0.59375 0.0625 0  0.609375 0.0625 0  0.625 0.0625 0  0.640625 0.0625 0  0.65625 0.0625 0  0.671875 0.0625 0  0.6875 0.0625 0  0.703125 0.0625 0  0.71875 0.0625 0  0.734375 0.0625 0  0.75 0.0625 0  0.765625 0.0625 0  0.78125 0.0625 0  0.796875 0.0625 0  0.8125 0.0625 0  0.828125 0.0625 0  0.84375 0.0625 0  0.859375 0.0625 0  0.875 0.0625 0  0.890625 0.0625 0  0.90625 0.0625 0  0.921875 0.0625 0  0.9375 0.0625 0  0.953125 0.0625 0  0.96875 0.0625 0  0.984375 0.0625 0  1 0.0625 0  0 0.078125 0  0.015625 0.078125 0  0.03125 0.078125 0  0.046875 0.078125 0  0.0625 0.078125 0  0.078125 0.078125 0  0.09375 0.078125 0  0.109375 0.078125 0  0.125 0.078125 0  0.140625 0.078125 0  0.15625 0.078125 0  0.171875 0.078125 0  0.1875 0.078125 0  0.203125 0.078125 0  0.21875 0.078125 0  0.234375 0.078125 0  0.25 0.078125 0  0.265625 0.078125 0  0.28125 0.078125 0  0.296875 0.078125 0  0.3125 0.078125 0  0.328125 0.078125 0  0.34375 0.078125 0  0.359375 0.078125 0  0.375 0.078125 0  0.390625 0.078125 0  0.40625 0.078125 0  0.421875 0.078125 0  0.4375 0.078125 0  0.453125 0.078125 0  0.46875 0.078125 0  0.484375 0.078125 0  0.5 0.078125 0  0.515625 0.078125 0  0.53125 0.078125 0  0.546875 0.078125 0  0.5625 0.078125 0  0.578125 0.078125 0  0.59375 0.078125 0  0.609375 0.078125 0  0.625 0.078125 0  0.640625 0.078125 0  0.65625 0.078125 0  0.671875 0.078125 0  0.6875 0.078125 0  0.703125 0.078125 0  0.71875 0.078125 0  0.734375 0.078125 0  0.75 0.078125 0  0.765625 0.078125 0  0.78125 0.078125 0  0.796875 0.078125 0  0.8125 0.078125 0  0.828125 0.078125 0  0.84375 0.078125 0  0.859375 0.078125 0  0.875 0.078125 0  0.890625 0.078125 0  0.90625 0.078125 0  0.921875 0.078125 0  0.9375 0.078125 0  0.953125 0.078125 0  0.96875 0.078125 0  0.984375 0.078125 0  1 0.078125 0  0 0.09375 0  0.015625 0.09375 0  0.03125 0.09375 0  0.046875 0.09375 0  0.0625 0.09375 0  0.078125 0.09375 0  0.09375 0.09375 0  0.109375 0.09375 0  0.125 0.09375 0  0.140625 0.09375 0  0.15625 0.09375 0  0.171875 0.09375 0  0.1875 0.09375 0  0.203125 0.09375 0  0.21875 0.09375 0  0.234375 0.09375 0  0.25 0.09375 0  0.265625 0.09375 0  0.28125 0.09375 0  0.296875 0.09375 0  0.3125 0.09375 0  0.328125 0.09375 0  0.34375 0.09375 0  0.359375 0.09375 0  0.375 0.09375 0  0.390625 0.09375 0  0.40625 0.09375 0  0.421875 0.09375 0  0.4375 0.09375 0  0.453125 0.09375 0  0.46875 0.09375 0  0.484375 0.09375 0  0.5 0.09375 0  0.515625 0.09375 0  0.53125 0.09375 0  0.546875 0.09375 0  0.5625 0.09375 0  0.578125 0.09375 0  0.59375 0.09375 0  0.609375 0.09375 0  0.625 0.09375 0  0.640625 0.09375 0  0.65625 0.09375 0  0.671875 0.09375 0  0.6875 0.09375 0  0.703125 0.09375 0  0.71875 0.09375 0  0.734375 0.09375 0  0.75 0.09375 0  0.765625 0.09375 0  0.78125 0.09375 0  0.796875 0.09375 0  0.8125 0.09375 0  0.828125 0.09375 0  0.84375 0.09375 0  0.859375 0.09375 0  0.875 0.09375 0  0.890625 0.09375 0  0.90625 0.09375 0  0.921875 0.09375 0  0.9375 0.09375 0  0.953125 0.09375 0  0.96875 0.09375 0  0.984375 0.09375 0  1 0.09375 0  0 0.109375 0  0.015625 0.109375 0  0.03125 0.109375 0  0.046875 0.109375 0  0.0625 0.109375 0  0.078125 0.109375 0  0.09375 0.109375 0  0.109375 0.109375 0  0.125 0.109375 0  0.140625 0.109375 0  0.15625 0.109375 0  0.171875 0.109375 0  0.1875 0.109375 0  0.203125 0.109375 0  0.21875 0.109375 0  0.234375 0.109375 0  0.25 0.109375 0  0.265625 0.109375 0  0.28125 0.109375 0  0.296875 0.109375 0  0.3125 0.109375 0  0.328125 0.109375 0  0.34375 0.109375 0  0.359375 0.109375 0  0.375 0.109375 0  0.390625 0.109375 0  0.40625 0.109375 0  0.421875 0.109375 0  0.4375 0.109375 0  0.453125 0.109375 0  0.46875 0.109375 0  0.484375 0.109375 0  0.5 0.109375 0  0.515625 0.109375 0  0.53125 0.109375 0  0.546875 0.109375 0  0.5625 0.109375 0  0.578125 0.109375 0  0.59375 0.109375 0  0.609375 0.109375 0  0.625 0.109375 0  0.640625 0.109375 0  0.65625 0.109375 0  0.671875 0.109375 0  0.6875 0.109375 0  0.703125 0.109375 0  0.71875 0.109375 0  0.734375 0.109375 0  0.75 0.109375 0  0.765625 0.109375 0  0.78125 0.109375 0  0.796875 0.109375 0  0.8125 0.109375 0  0.828125 0.109375 0  0.84375 0.109375 0  0.859375 0.109375 0  0.875 0.109375 0  0.890625 0.109375 0  0.90625 0.109375 0  0.921875 0.109375 0  0.9375 0.109375 0  0.953125 0.109375 0  0.96875 0.109375 0  0.984375 0.109375 0  1 0.109375 0  0 0.125 0  0.015625 0.125 0  0.03125 0.125 0  0.046875 0.125 0  0.0625 0.125 0  0.078125 0.125 0  0.09375 0.125 0  0.109375 0.125 0  0.125 0.12
[...]
<PointData  Scalars="f_9634"> 
<DataArray  type="Float64"  Name="f_9634"  format="ascii">5.3680542128695803e-15  5.5151872501984152e-15  5.7756024175567169e-15  6.0706715445198719e-15  6.3775301409498249e-15  6.6888561305015943e-15  7.0017854331252340e-15  7.3148000494386604e-15  7.6268532044070329e-15  7.9371339884557012e-15  8.2450187272192214e-15  8.5500797178135445e-15  8.8521178853452146e-15  9.1512192292320744e-15  9.4478456998807998e-15  9.7429446626836966e-15  1.0037934420441758e-14  1.0334111421145458e-14  1.0630548660840020e-14  1.0919280740982584e-14  1.1177324015385628e-14  1.1357639722469555e-14  1.1384955980084770e-14  1.1164495656805162e-14  1.0608088047346777e-14  9.6718737467853698e-15  8.3884099191268889e-15  6.8732299943442798e-15  5.2972193635357572e-15  3.8356121832155560e-15  2.6180549558813331e-15  1.7020148934943173e-15  1.0765085269581834e-15  6.8678572695360974e-16  4.6366721975606932e-16  3.4501455414233369e-16  2.8530418924663774e-16  2.5592258959008150e-16  2.4101770212412039e-16  2.3269968146050514e-16  2.2737643350641998e-16  2.2351744769552031e-16  2.2048987903105803e-16  2.1802351896609316e-16  2.1598800971261154e-16  2.1430677847001797e-16  2.1292533546715575e-16  2.1179974517536810e-16  2.1089230090062794e-16  2.1016976939455713e-16  2.0960259262394311e-16  2.0916447575467847e-16  2.0883214447983394e-16  2.0858517825393232e-16  2.0840587247691620e-16  2.0827910287202672e-16  2.0819217610048703e-16  2.0813465784447790e-16  2.0809817519387066e-16  2.0807619484779512e-16  2.0806378250513658e-16  2.0805735176535628e-16  2.0805441272367608e-16  2.0805333108096879e-16  2.0805310794975281e-16  5.3773895087371107e-15  5.5075988870818584e-15  5.7732775542249862e-15  6.0699401613903336e-15  6.3772560272569963e-15  6.6887187740157333e-15  7.0016946996185987e-15  7.3147322712178664e-15  7.6268062214197166e-15  7.9371191589523028e-15  8.2450763302203077e-15  8.5503470652857163e-15  8.8530653411951086e-15  9.1543872079165929e-15  9.4578918714756188e-15  9.7726151220412974e-15  1.0118421769933761e-14  1.0533072748520112e-14  1.1076876266982483e-14  1.1826036539609612e-14  1.2844026835310315e-14  1.4128294490421392e-14  1.5549960773000025e-14  1.6826560502801012e-14  1.7569690288069378e-14  1.7414354175804037e-14  1.6178651298196298e-14  1.3965412443924993e-14  1.1139942471518601e-14  8.1916409866096452e-15  5.5571928659480003e-15  3.4967058143135016e-15  2.0681357834761168e-15  1.1824513109436463e-15  6.8770203115197934e-16  4.3650769686019859e-16  3.1901811858970203e-16  2.6710346998550217e-16  2.4433803980892694e-16  2.3357239948145434e-16  2.2757288049680388e-16  2.2355056102909415e-16  2.2048996528630826e-16  2.1801893000362315e-16  2.1598363838062342e-16  2.1430306190491929e-16  2.1292212818812132e-16  2.1179692172422309e-16  2.1088979173277659e-16  2.1016753686640252e-16  2.0960061463642693e-16  2.0916273747131335e-16  2.0883063403195291e-16  2.0858388430388902e-16  2.0840478276441128e-16  2.0827820339294608e-16  2.0819145076256316e-16  2.0813408850579030e-16  2.0809774199388435e-16  2.0807587671456467e-16  2.0806355767987759e-16  2.0805719813972237e-16  2.0805430775726434e-16  2.0805325109461331e-16  2.0805302673352696e-16  5.3781007166692733e-15  5.5033283467427694e-15  5.7713172881746774e-15  6.0692943020183468e-15  6.3770056438244275e-15  6.6885886977678955e-15  7.0016079532841070e-15  7.3146722252318997e-15  7.6267863931703981e-15  7.9372173024382536e-15  8.2456328630768243e-15  8.5527798758296349e-15  8.8628163874120871e-15  9.1903234375698351e-15  9.5785672009898022e-15  1.0139892638600156e-14  1.1129197684424044e-14  1.3046382158624763e-14  1.6722377829524184e-14  2.3283335290772128e-14  3.3857212919971251e-14  4.8966451557918720e-14  6.7777310648682778e-14  8.7644305197178302e-14  1.0444614705140324e-13  1.1386038265474988e-13  1.1309266220700487e-13  1.0213077136725423e-13  8.3767189708949056e-14  6.2374820106648876e-14  4.2172119021271378e-14  2.5911698941822386e-14  1.4500569888523042e-14  7.4306222249300222e-15  3.5332188062932022e-15  1.6108655509208757e-15  7.5822711217794243e-16  4.1595074490322713e-16  2.9003747062696110e-16  2.4627596788057275e-16  2.3076503720100797e-16  2.2427189019108795e-16  2.2063357055782874e-16  2.1804153726060200e-16  2.1598396170930848e-16  2.1430008858495618e-16  2.1291903106315637e-16  2.1179411457342281e-16  2.1088728539616618e-16  2.1016530500462808e-16  2.0959863678423146e-16  2.0916099909626199e-16  2.0882912336402961e-16  2.0858259006053460e-16  2.0840369272381965e-16  2.0827730356898696e-16  2.0819072503155230e-16  2.0813351857694105e-16  2.0809730761283537e-16  2.0807555597622963e-16  2.0806332734416101e-16  2.0805703395299717e-16  2.0805418507053892e-16  2.0805314663117769e-16  2.0805292324437572e-16  5.3765204899128277e-15  5.5004729268778852e-15  5.7697797285748641e-15  6.0687274020398412e-15  6.3767764607566881e-15  6.6884667847818786e-15  7.0015316213425692e-15  7.3146515363440915e-15  7.6269658767700091e-15  7.9383597319178320e-15  8.2513684773848907e-15  8.5787373335364208e-15  8.9693714890581693e-15  9.5859939842825131e-15  1.0905659622310941e-14  1.4158802249916094e-14  2.2119108778316019e-14  4.0190510285917025e-14  7.7297650422731907e-14  1.4546306481043146e-13  2.5666482318345957e-13  4.1643768415611012e-13  6.1606118165241577e-13  8.2791917303794435e-13  1.0091214890272574e-12  1.1147864285897685e-12  1.1158803400309874e-12  1.0120307744926040e-12  8.3164095721362515e-13  6.1927612979904205e-13  4.1792523722036509e-13  2.5566135304148603e-13  1.4181672789890699e-13  7.1379434640001901e-14  3.2649874210938455e-14  1.3629256253422049e-14  5.2558052206239454e-15  1.9419896197501357e-15  7.5952771071273500e-16  3.7724425994568556e-16  2.6388942033284910e-16  2.3186454647448719e-16  2.2220806958546614e-16  2.1833448426298567e-16  2.1603063826982235e-16  2.1430433354194253e-16  2.1291695704228382e-16  2.1179144044594043e-16  2.1088479540279148e-16  2.1016307521707710e-16  2.0959665919643877e-16  2.0915926063996712e-16  2.0882761247769865e-16  2.0858129551835495e-16  2.0840260231714674e-16  2.0827640326104573e-16  2.0818999851628244e-16  2.0813294713436551e-16  2.0809687016447458e-16  2.0807522928589061e-16  2.0806308642075664e-16  2.0805685291339738e-16  2.0805403894722399e-16  2.0805301459919868e-16  2.0805279288512161e-16  5.3745711201934743e-15  5.4983687503831841e-15  5.7685825653417037e-15  6.0682379977381620e-15  6.3765680436956585e-15  6.6883599149892601e-15  7.0015089802839787e-15  7.3149465920968113e-15  7.6290286321592285e-15  7.9499077607557377e-15  8.3092710551794714e-15  8.8408402977488863e-15  1.0040272329452529e-14  1.3534745429865008e-14  2.4048229335096411e-14  5.3654634088892339e-14  1.2932871746578300e-13  3.0315210053767788e-13  6.6032437754190750e-13  1.3143604213515314e-12  2.3764928422546395e-12  3.8949584344201454e-12  5.7823628693096158e-12  7.7744133902992242e-12  9.4667862668081826e-12  1.0441349617387621e-11  1.0432471954639050e-11  9.4439417919036879e-12  7.7466096191284127e-12  5.7585855418055634e-12  3.8798611767198267e-12  2.3695271779708227e-12  1.3119089686155171e-12  6.5857614098864473e-13  2.9982832523480210e-13  1.2386044076185532e-13  4.6496083291009761e-14  1.5933992726996747e-14  5.0648438824473319e-15  1.5787363793783101e-15  5.6801111513952556e-16  3.0168622894142619e-16  2.3674573974259743e-16  2.2107737107488458e-16  2.1649743236671637e-16  2.1437395567939400e-16  2.1292411856431687e-16  2.1178995178858502e-16  2.1088244415718899e-16  2.1016086041923990e-16  2.0959468310781448e-16  2.0915752220746102e-16  2.0882610136796389e-16  2.0858000062240566e-16  2.0840151137417602e-16  2.0827550203824924e-16  2.0818927027386573e-16  2.0813237236099606e-16  2.0809642655461178e-16  2.0807489202438561e-16  2.0806282898241527e-16  2.0805664869857020e-16  2.0805386397279019e-16  2.0805285087709803e-16  2.0805263092552780e-16  5.3727925444216977e-15  5.4967441083005636e-15  5.7676404695982157e-15  6.0678208365405892e-15  6.3763872118551421e-15  6.6883199287480484e-15  7.0019169796770756e-15  7.3181110821746827e-15  7.6486035840750028e-15  8.0580063115348141e-15  8.8472203593531516e-15  1.1255352206364078e-14  1.9817307859580203e-14  4.9264662202256984e-14  1.4194012795156061e-13  4.0501350919832920e-13  1.0756117681896997e-12  2.6071271181911153e-12  5.7336791421638137e-12  1.1421653771049906e-11  2.0600465441650033e-11  3.3642441485887792e-11  4.9753847227623710e-11  6.6646005618469410e-11  8.0873809541856612e-11  8.8920017110390140e-11  8.8595761496294072e-11  8.0002703852934840e-11  6.5482407221453753e-11  4.8586666880053892e-11  3.2682973432510545e-11  1.9933046065252811e-11  1.1023167799627073e-11  5.5277941750799673e-12  2.5138825212304532e-12  1.0368937000892359e-12  3.8798539960834913e-13  1.3178025098523773e-13  4.0711869382542763e-14  1.1528741474989975e-14  3.0874564380821136e-15  8.8043637552654062e-16  3.5736034349092821e-16  2.4388168036951426e-16  2.2040706250198882e-16  2.1497978207718883e-16  2.1300707920574121e-16  2.1179819102630110e-16  2.1088122697313032e-16  2.1015876591260651e-16  2.0959271863088124e-16  2.0915578466129954e-16  2.0882459003688639e-16  2.0857870519054527e-16  2.0840041945209882e-16  2.0827459897540499e-16  2.0818853857935847e-16  2.0813179137609526e-16  2.0809597249018761e-16  2.0807453853893168e-16  2.0806254854940145e-16  2.0805641492464695e-16  2.0805365462623431e-16  2.0805265065401101e-16  2.0805243232135742e-16  5.3712967972585184e-15  5.4954617791519225e-15  5.7668912534719534e-15  6.0674750629514630e-15  6.3762846394161864e-15  6.6887769356916152e-15  7.0060155868198518e-15  7.3460845842263282e-15  7.8182952768100399e-15  8.9848078952615324e-15  1.3410841093960153e-14  3.1522840573163073e-14  1.0103512047243634e-13  3.4308352641934374e-13  1.1020225764749839e-12  3.2400701606312124e-12  8.6449411490928975e-12  2.0888173869843212e-11  4.5689502416160650e-11  9.0482299048477860e-11  1.6227287127500869e-10  2.6361529443266442e-10  3.8800269361226888e-10  5.1751398711545173e-10  6.2560983732277213e-10  6.8554947226540843e-10  6.8104833293683047e-10  6.1342762964933571e-10  5.0099232251358148e-10  3.7103270160700389e-10  2.4919180434810911e-10  1.5178181682819386e-10  8.3847830495894106e-11  4.2011686539493111e-11  1.9092998312847803e-11  7.8709044962092345e-12  2.9433946157541171e-12  9.9860728884133776e-13  3.0746475190288932e-13  8.6003529741428682e-14  2.1952317856989161e-14  5.2161969250441166e-15  1.2615716934032534e-15  4.1499862166188310e-16  2.4979299163916837e-16  2.1955763476508626e-16  2.1365220037895108e-16  2.1187866582408978e-16  2.1088843895976104e-16  2.1015756499266206e-16  2.0959084021311799e-16  2.0915405444389134e-16  2.0882307880939070e-16  2.0857740882243814e-16  2.0839932566724293e-16  2.0827369245327518e-16  2.0818780075285124e-16  2.0813120017043335e-16  2.0809550257844030e-16  2.0807416235863914e-16  2.0806223824011262e-16  2.0805614506236217e-16  2.0805340510963577e-16  2.0805240857086964e-16  2.0805219163695851e-16  5.3700767053227093e-15  5.4944445923127755e-15  5.7662951127423550e-15  6.0672208130638157e-15  6.3766583770644049e-15  6.6932724690869404e-15  7.0399600369659622e-15  7.5716422478101652e-15  9.1679033865411280e-15  1.6264495709805718e-14  4.8812075162608543e-14  1.8681103845879470e-13  7.1584730192721125e-13  2.5414882488891301e-12  8.2061550561602000e-12  2.3999852491873881e-11  6.3535257849994981e-11  1.5227633217922620e-10  3.3052811683160253e-10  6.4996343041127014e-10  1.1582443802788608e-09  1.8708787325315052e-09  2.7397293888071646e-09  3.6379025108245959e-09  4.3805262744006857e-09  4.7837958278350911e-09  4.7382800833871626e-09  4.2569119931380948e-09  3.4690751951326189e-09  2.5644460362536141e-09  1.7196791493592753e-09  1.0461327481245988e-09  5.7732734908949531e-10  2.8904361350924180e-10  1.3128663126876493e-10  5.4100852000630848e-11  2.0226765584236149e-11  6.8612643019101570e-12  2.1118713665899981e-12  5.8992565867039157e-13  1.4965489546740209e-13  3.4583552077358717e-14  7.3905069522683372e-15  1.5758889569401642e-15  4.4937309318048924e-16  2.5070218417432203e-16  2.1806238681818165e-16  2.1244367112810961e-16  2.1095228443461953e-16  2.1016237782096964e-16  2.0958954201906427e-16  2.0915237473503000e-16  2.0882157072608658e-16  2.0857611093538311e-16  2.0839822853071904e-16  2.0827277999030130e-16  2.0818705305675944e-16  2.0813059362228939e-16  2.0809501046106258e-16  2.0807375636055862e-16  2.0806189083763218e-16  2.0805583236163238e-16  2.0805310927421940e-16  2.0805211878018681e-16  2.0805190301271891e-16  5.3691173361984868e-15  5.4936184120356719e-15  5.7657724985936465e-15  6.0673298833615003e-15  6.3809117558175560e-15  6.7287511444580724e-15  7.2961518726136978e-15  9.2466776739767143e-15  1.9049408522041585e-14  6.8784785476642609e-14  3.0044804258285722e-13  1.2745779200955712e-12  4.9618201389484409e-12  1.7519350661672862e-11  5.5992130182343423e-11  1.6199187287773600e-10  4.2444349681988523e-10  1.0076727704325297e-09  2.1685686048930505e-09  4.2317814200532826e-09  7.4899086827473089e-09  1.2025694462577376e-08  1.7517729121990388e-08  2.3153425874663121e-08  2.7768038700294283e-08  3.0219059596915086e-08  2.9842094946349566e-08  2.6741936480265022e-08  2.1745605489978088e-08  1.6045887952300988e-08  1.0744038163841436e-08  6.5280112832392322e-09  3.5991705476425244e-09  1.8006599502650186e-09  8.1746582674095689e-10  3.3675855751306890e-10  1.2588772182341788e-10  4.2704254966340579e-11  1.3146008342114242e-11  3.6726076247729622e-12  9.3126656589753346e-13  2.1444817009895673e-13  4.4958572366791919e-14  8.6985600855612318e-15  1.6752812824178885e-15  4.4226445471094184e-16  2.4524124813824215e-16  2.1594376202880513e-16  2.1135984480772240e-16  2.1020376616484642e-16  2.0959178145671308e-16  2.0915100543475884e-16  2.0882008585764619e-16  2.0857481166224404e-16  2.0839712585716819e-16  2.0827185812448141e-16  2.0818629065915370e-16  2.0812996556527603e-16  2.0809448895052110e-16  2.0807331288790642e-16  2.0806149881364298e-16  2.0805546979647899e-16  2.0805276058752890e-16  2.0805177497341849e-16  2.0805156015318623e-16  5.3682195769332168e-15  5.4927097946866677e-15  5.7654887807751378e-15  6.0711812244378190e-15  6.4139242246941357e-15  6.9800482918144517e-15  9.0846950773991347e-15  2.0777786683376361e-14  8.5908239106896804e-14  4.1776791008523351e-13  1.9428227315052973e-12  8.2514213258977442e-12  3.1742232749394739e-11  1.1050235747751564e-10  3.4830951763073898e-10  9.9481583803521274e-10  2.5762771213525719e-09  6.0525896823668829e-09  1.2904828511322842e-08  2.4976730454463324e-08  4.3889328708605531e-08  7.0025829598582179e-08  1.0144879168589613e-07  1.3345124841019256e-07  1.5939453120339866e-07  1.7285467366552271e-07  1.7018631729807071e-07  1.5211841976939028e-07  1.2343286918939603e-07  9.0918272860738392e-08  6.0788890189989967e-08  3.6892113972608338e-08  2.0321944662030695e-08  1.0160338287816746e-08  4.6105620251581946e-09  1.8988776469114801e-09  7.0979893016008112e-10  2.4080767451091039e-10  7.4149368846457663e-11  2.0723252331672866e-11  5.2570703419666757e-12  1.2106591519720805e-12  2.5322565586470518e-13  4.8226937471101961e-14  8.4870509415903463e-15  1.5081921239355235e-15  3.9672833373870568e-16  2.3549839501323238e-16  2.1365146747092829e-16  2.1044612200024457e-16  2.0961351231955571e-16  2.0915135450927565e-16  2.0881873616716849e-16  2.0857351720330447e-16  2.0839601500185596e-16  2.0827092236470780e-16  2.0818550765109744e-16  2.0812930888352340e-16  2.0809393015275821e-16  2.0807282383100456e-16  2.0806105433331134e-16  2.0805505002865145e-16  2.0805235211978356e-16  2.0805137039630370e-16  2.0805115632575253e-16  5.3664685755960397e-15  5.4923150140480013e-15  5.7702417796191073e-15  6.1007485817699505e-15  6.6277410778080779e-15  8.6344575495413270e-15  2.0792503606382708e-14  9.4759664823005458e-14  5.0535077232934824e-13  2.5593983870069273e-12  1.1807173907728658e-11  4.9290010999023202e-11  1.8616667420094085e-10  6.3682368522674949e-10  1.9751345153143600e-09  5.5595550021198780e-09  1.4211764828843443e-08  3.3007982774769563e-08  6.9673707516407468e-08  1.3367538275823882e-07  2.3311799411589228e-07  3.6950606051201530e-07  5.3229178422354197e-07  6.9680459989435392e-07  8.2880284593463368e-07  8.9560300320057035e-07  8.7912518666421684e-07  7.8380279802697747e-07  6.3465538124644156e-07  4.6666254638318838e-07  3.1157690745359148e-07  1.8888314366703196e-07  1.0395844122552858e-07  5.1944855286708645e-08  2.3562626684627377e-08  9.7026403046316891e-09  3.6268743656097308e-09  1.2306866725940290e-09  3.7908450914785531e-10  1.0599978777878515e-10  2.6907195808869106e-11  6.2008738937996373e-12  1.2975447396275445e-12  2.4667136761651586e-13  4.2731000446224915e-14  6.8751532171796691e-15  1.1608243281008765e-15  3.3433774406298159e-16  2.2526947090545278e-16  2.1168596198208765e-16  2.0973228361851702e-16  2.0916029320346588e-16  2.0881807449428204e-16  2.0857226545298429e-16  2.0839489450338928e-16  2.0826996727444616e-16  2.0818469710659349e-16  2.0812861561700886e-16  2.0809332557102598e-16  2.0807228068218056e-16  2.0806054925359236e-16  2.0805456538589627e-16  2.0805187654058326e-16  2.0805089786079479e-16  2.0805068436563149e-16  5.3676992498600294e-15  5.5021329241237534e-15  5.7987517466120525e-15  6.2504567158012018e-15  7.9399843249159146e-15  1.9112305375902352e-14  9.3115192934584245e-14  5.3849515717797650e-13  2.9534648706618983e-12  1.4734713487024968e-11  6.6453300362674088e-11  2.7100952834700704e-10  1.0010486049640750e-09  3.3548354667813181e-09  1.0214985486179990e-08  2.8286672738775971e-08  7.1279835231710731e-08  1.6350243446222844e-07  3.4142132275801585e-07  6.4898851662968239e-07  1.1227769495742140e-06  1.7675311361986971e-06  2.5313608911311009e-06  3.2972234093290974e-06  3.9052316930575322e-06  4.2048666554407367e-06  4.1150516432455894e-06  3.6596131096537778e-06  2.9570574485488128e-06  2.1706281406783366e-06  1.4472936746040421e-06  8.7644688457936939e-07  4.8200501689200223e-07  2.4071359459789939e-07  1.0915541850046837e-07  4.4943234982895096e-08  1.6801286947194485e-08  5.7025743000725874e-09  1.7573039897443752e-09  4.9167090234665370e-10  1.2490086779427691e-10  2.8809830470448360e-11  6.0344363084215785e-12  1.1479862840352556e-12  1.9850046079839972e-13  3.1330744001560167e-14  4.6494096318910471e-15  7.8661167340324255e-16  2.7857296094367818e-16  2.1739763480081358e-16  2.1028759694564728e-16  2.0920803241884439e-16  2.0882054875293253e-16  2.0857123389926195e-16  2.0839377136429671e-16  2.0826898694476692e-16  2.0818385118647274e-16  2.0812787706701237e-16  2.0809266619117672e-16  2.0807167457384197e-16  2.0805997512114870e-16  2.0805400785133463e-16  2.0805132612227603e-16  2.0805034975724626e-16  2.0805013668528556e-16  5.4025498445706785e-15  5.5299645846290307e-15  5.8452709993535279e-15  7.0644160326384215e-15  1.6320972350809441e-14  8.2935492169598319e-14  5.1405544633746259e-13  3.0347095177116194e-12  1.6302507421067716e-11  7.9065602415155951e-11  3.4626466364741210e-10  1.3727050412556336e-09  4.9393239906812350e-09  1.6167358677991227e-08  4.8212134817944405e-08  1.3110232958766408e-07  3.2521965901798916e-07  7.3599924477528961e-07  1.5192635493504851e-06  2.8595962236104224e-06  4.9059329910652044e-06  7.6683464883800442e-06  1.0916013669316669e-05  1.4146087214314160e-05  1.6682419552385201e-05  1.7897297862908958e-05  1.7461924578005758e-05  1.5490246338206245e-05  1.2490663613221558e-05  9.1534765315170088e-06  6.0951488479147322e-06  3.6873590030906652e-06  2.0263968530239322e-06  1.0114997855918322e-06  4.5856619537916448e-07  1.8880087057422164e-07  7.0591137633100847e-08  2.3967723076443580e-08  7.3897157352289720e-09  2.0689743099781104e-09  5.2604105962744379e-10  1.2146241442116138e-10  2.5471502591027431e-11  4.8518904289627934e-12  8.3971487275344991e-13  1.3219499534744335e-13  1.9069179045634717e-14  2.6606902671348523e-15  5.0007375118763835e-16  2.4121449193588