<?xml version="1.0"?>
<VTKFile type="UnstructuredGrid"  version="0.1"  >
<UnstructuredGrid>
<Piece  NumberOfPoints="4225" NumberOfCells="8192">
<Points>
<DataArray  type="Float64"  NumberOfComponents="3"  format="ascii">0 0 0  0.015625 0 0  0.03125 0 0  0.046875 0 0  0.0625 0 0  0.078125 0 0  0.09375 0 0  0.109375 0 0  0.125 0 0  0.140625 0 0  0.15625 0 0  0.171875 0 0  0.1875 0 0  0.203125 0 0  0.21875 0 0  0.234375 0 0  0.25 0 0  0.265625 0 0  0.28125 0 0  0.296875 0 0  0.3125 0 0  0.328125 0 0  0.34375 0 0  0.359375 0 0  0.375 0 0  0.390625 0 0  0.40625 0 0  0.421875 0 0  0.4375 0 0  0.453125 0 0  0.46875 0 0  0.484375 0 0  0.5 0 0  0.515625 0 0  0.53125 0 0  0.546875 0 0  0.5625 0 0  0.578125 0 0  0.59375 0 0  0.609375 0 0  0.625 0 0  0.640625 0 0  0.65625 0 0  0.671875 0 0  0.6875 0 0  0.703125 0 0  0.71875 0 0  0.734375 0 0  0.75 0 0  0.765625 0 0  0.78125 0 0  0.796875 0 0  0.8125 0 0  0.828125 0 0  0.84375 0 0  0.859375 0 0  0.875 0 0  0.890625 0 0  0.90625 0 0  0.921875 0 0  0.9375 0 0  0.953125 0 0  0.96875 0 0  0.984375 0 0  1 0 0  0 0.015625 0  0.015625 0.015625 0  0.03125 0.015625 0  0.046875 0.015625 0  0.0625 0.015625 0  0.078125 0.015625 0  0.09375 0.015625 0  0.109375 0.015625 0  0.125 0.015625 0  0.140625 0.015625 0  0.15625 0.015625 0  0.171875 0.015625 0  0.1875 0.015625 0  0.203125 0.015625 0  0.21875 0.015625 0  0.234375 0.015625 0  0.25 0.015625 0  0.265625 0.015625 0  0.28125 0.015625 0  0.296875 0.015625 0  0.3125 0.015625 0  0.328125 0.015625 0  0.34375 0.015625 0  0.359375 0.015625 0  0.375 0.015625 0  0.390625 0.015625 0  0.40625 0.015625 0  0.421875 0.015625 0  0.4375 0.015625 0  0.453125 0.015625 0  0.46875 0.015625 0  0.484375 0.015625 0  0.5 0.015625 0  0.515625 0.015625 0  0.53125 0.015625 0  0.546875 0.015625 0  0.5625 0.015625 0  0.578125 0.015625 0  0.59375 0.015625 0  0.609375 0.015625 0  0.625 0.015625 0  0.640625 0.015625 0  0.65625 0.015625 0  0.671875 0.015625 0  0.6875 0.015625 0  0.703125 0.015625 0  0.71875 0.015625 0  0.734375 0.015625 0  0.75 0.015625 0  0.765625 0.015625 0  0.78125 0.015625 0  0.796875 0.015625 0  0.8125 0.015625 0  0.828125 0.015625 0  0.84375 0.015625 0  0.859375 0.015625 0  0.875 0.015625 0  0.890625 0.015625 0  0.90625 0.015625 0  0.921875 0.015625 0  0.9375 0.015625 0  0.953125 0.015625 0  0.96875 0.015625 0  0.984375 0.015625 0  1 0.015625 0  0 0.03125 0  0.015625 0.03125 0  0.03125 0.03125 0  0.046875 0.03125 0  0.0625 0.03125 0  0.078125 0.03125 0  0.09375 0.03125 0  0.109375 0.03125 0  0.125 0.03125 0  0.140625 0.03125 0  0.15625 0.03125 0  0.171875 0.03125 0  0.1875 0.03125 0  0.203125 0.03125 0  0.21875 0.03125 0  0.234375 0.03125 0  0.25 0.03125 0  0.265625 0.03125 0  0.28125 0.03125 0  0.296875 0.03125 0  0.3125 0.03125 0  0.328125 0.03125 0  0.34375 0.03125 0  0.359375 0.03125 0  0.375 0.03125 0  0.390625 0.03125 0  0.40625 0.03125 0  0.421875 0.03125 0  0.4375 0.03125 0  0.453125 0.03125 0  0.46875 0.03125 0  0.484375 0.03125 0  0.5 0.03125 0  0.515625 0.03125 0  0.53125 0.03125 0  0.546875 0.03125 0  0.5625 0.03125 0  0.578125 0.03125 0  0.59375 0.03125 0  0.609375 0.03125 0  0.625 0.03125 0  0.640625 0.03125 0  0.65625 0.03125 0  0.671875 0.03125 0  0.6875 0.03125 0  0.703125 0.03125 0  0.71875 0.03125 0  0.734375 0.03125 0  0.75 0.03125 0  0.765625 0.03125 0  0.78125 0.03125 0  0.796875 0.03125 0  0.8125 0.03125 0  0.828125 0.03125 0  0.84375 0.03125 0  0.859375 0.03125 0  0.875 0.03125 0  0.890625 0.03125 0  0.90625 0.03125 0  0.921875 0.03125 0  0.9375 0.03125 0  0.953125 0.03125 0  0.96875 0.03125 0  0.984375 0.03125 0  1 0.03125 0  0 0.046875 0  0.015625 0.046875 0  0.03125 0.046875 0  0.046875 0.046875 0  0.0625 0.046875 0  0.078125 0.046875 0  0.09375 0.046875 0  0.109375 0.046875 0  0.125 0.046875 0  0.140625 0.046875 0  0.15625 0.046875 0  0.171875 0.046875 0  0.1875 0.046875 0  0.203125 0.046875 0  0.21875 0.046875 0  0.234375 0.046875 0  0.25 0.046875 0  0.265625 0.046875 0  0.28125 0.046875 0  0.296875 0.046875 0  0.3125 0.046875 0  0.328125 0.046875 0  0.34375 0.046875 0  0.359375 0.046875 0  0.375 0.046875 0  0.390625 0.046875 0  0.40625 0.046875 0  0.421875 0.046875 0  0.4375 0.046875 0  0.453125 0.046875 0  0.46875 0.046875 0  0.484375 0.046875 0  0.5 0.046875 0  0.515625 0.046875 0  0.53125 0.046875 0  0.546875 0.046875 0  0.5625 0.046875 0  0.578125 0.046875 0  0.59375 0.046875 0  0.609375 0.046875 0  0.625 0.046875 0  0.640625 0.046875 0  0.65625 0.046875 0  0.671875 0.046875 0  0.6875 0.046875 0  0.703125 0.046875 0  0.71875 0.046875 0  0.734375 0.046875 0  0.75 0.046875 0  0.765625 0.046875 0  0.78125 0.046875 0  0.796875 0.046875 0  0.8125 0.046875 0  0.828125 0.046875 0  0.84375 0.046875 0  0.859375 0.046875 0  0.875 0.046875 0  0.890625 0.046875 0  0.90625 0.046875 0  0.921875 0.046875 0  0.9375 0.046875 0  0.953125 0.046875 0  0.96875 0.046875 0  0.984375 0.046875 0  1 0.046875 0  0 0.0625 0  0.015625 0.0625 0  0.03125 0.0625 0  0.046875 0.0625 0  0.0625 0.0625 0  0.078125 0.0625 0  0.09375 0.0625 0  0.109375 0.0625 0  0.125 0.0625 0  0.140625 0.0625 0  0.15625 0.0625 0  0.171875 0.0625 0  0.1875 0.0625 0  0.203125 0.0625 0  0.21875 0.0625 0  0.234375 0.0625 0  0.25 0.0625 0  0.265625 0.0625 0  0.28125 0.0625 0  0.296875 0.0625 0  0.3125 0.0625 0  0.328125 0.0625 0  0.34375 0.0625 0  0.359375 0.0625 0  0.375 0.0625 0  0.390625 0.0625 0  0.40625 0.0625 0  0.421875 0.0625 0  0.4375 0.0625 0  0.453125 0.0625 0  0.46875 0.0625 0  0.484375 0.0625 0  0.5 0.0625 0  0.515625 0.0625 0  0.53125 0.0625 0  0.546875 0.0625 0  0.5625 0.0625 0  0.578125 0.0625 0  0.59375 0.0625 0  0.609375 0.0625 0  0.625 0.0625 0  0.640625 0.0625 0  0.65625 0.0625 0  0.671875 0.0625 0  0.6875 0.0625 0  0.703125 0.0625 0  0.71875 0.0625 0  0.734375 0.0625 0  0.75 0.0625 0  0.765625 0.0625 0  0.78125 0.0625 0  0.796875 0.0625 0  0.8125 0.0625 0  0.828125 0.0625 0  0.84375 0.0625 0  0.859375 0.0625 0  0.875 0.0625 0  0.890625 0.0625 0  0.90625 0.0625 0  0.921875 0.0625 0  0.9375 0.0625 0  0.953125 0.0625 0  0.96875 0.0625 0  0.984375 0.0625 0  1 0.0625 0  0 0.078125 0  0.015625 0.078125 0  0.03125 0.078125 0  0.046875 0.078125 0  0.0625 0.078125 0  0.078125 0.078125 0  0.09375 0.078125 0  0.109375 0.078125 0  0.125 0.078125 0  0.140625 0.078125 0  0.15625 0.078125 0  0.171875 0.078125 0  0.1875 0.078125 0  0.203125 0.078125 0  0.21875 0.078125 0  0.234375 0.078125 0  0.25 0.078125 0  0.265625 0.078125 0  0.28125 0.078125 0  0.296875 0.078125 0  0.3125 0.078125 0  0.328125 0.078125 0  0.34375 0.078125 0  0.359375 0.078125 0  0.375 0.078125 0  0.390625 0.078125 0  0.40625 0.078125 0  0.421875 0.078125 0  0.4375 0.078125 0  0.453125 0.078125 0  0.46875 0.078125 0  0.484375 0.078125 0  0.5 0.078125 0  0.515625 0.078125 0  0.53125 0.078125 0  0.546875 0.078125 0  0.5625 0.078125 0  0.578125 0.078125 0  0.59375 0.078125 0  0.609375 0.078125 0  0.625 0.078125 0  0.640625 0.078125 0  0.65625 0.078125 0  0.671875 0.078125 0  0.6875 0.078125 0  0.703125 0.078125 0  0.71875 0.078125 0  0.734375 0.078125 0  0.75 0.078125 0  0.765625 0.078125 0  0.78125 0.078125 0  0.796875 0.078125 0  0.8125 0.078125 0  0.828125 0.078125 0  0.84375 0.078125 0  0.859375 0.078125 0  0.875 0.078125 0  0.890625 0.078125 0  0.90625 0.078125 0  0.921875 0.078125 0  0.9375 0.078125 0  0.953125 0.078125 0  0.96875 0.078125 0  0.984375 0.078125 0  1 0.078125 0  0 0.09375 0  0.015625 0.09375 0  0.03125 0.09375 0  0.046875 0.09375 0  0.0625 0.09375 0  0.078125 0.09375 0  0.09375 0.09375 0  0.109375 0.09375 0  0.125 0.09375 0  0.140625 0.09375 0  0.15625 0.09375 0  0.171875 0.09375 0  0.1875 0.09375 0  0.203125 0.09375 0  0.21875 0.09375 0  0.234375 0.09375 0  0.25 0.09375 0  0.265625 0.09375 0  0.28125 0.09375 0  0.296875 0.09375 0  0.3125 0.09375 0  0.328125 0.09375 0  0.34375 0.09375 0  0.359375 0.09375 0  0.375 0.09375 0  0.390625 0.09375 0  0.40625 0.09375 0  0.421875 0.09375 0  0.4375 0.09375 0  0.453125 0.09375 0  0.46875 0.09375 0  0.484375 0.09375 0  0.5 0.09375 0  0.515625 0.09375 0  0.53125 0.09375 0  0.546875 0.09375 0  0.5625 0.09375 0  0.578125 0.09375 0  0.59375 0.09375 0  0.609375 0.09375 0  0.625 0.09375 0  0.640625 0.09375 0  0.65625 0.09375 0  0.671875 0.09375 0  0.6875 0.09375 0  0.703125 0.09375 0  0.71875 0.09375 0  0.734375 0.09375 0  0.75 0.09375 0  0.765625 0.09375 0  0.78125 0.09375 0  0.796875 0.09375 0  0.8125 0.09375 0  0.828125 0.09375 0  0.84375 0.09375 0  0.859375 0.09375 0  0.875 0.09375 0  0.890625 0.09375 0  0.90625 0.09375 0  0.921875 0.09375 0  0.9375 0.09375 0  0.953125 0.09375 0  0.96875 0.09375 0  0.984375 0.09375 0  1 0.09375 0  0 0.109375 0  0.015625 0.109375 0  0.03125 0.109375 0  0.046875 0.109375 0  0.0625 0.109375 0  0.078125 0.109375 0  0.09375 0.109375 0  0.109375 0.109375 0  0.125 0.109375 0  0.140625 0.109375 0  0.15625 0.109375 0  0.171875 0.109375 0  0.1875 0.109375 0  0.203125 0.109375 0  0.21875 0.109375 0  0.234375 0.109375 0  0.25 0.109375 0  0.265625 0.109375 0  0.28125 0.109375 0  0.296875 0.109375 0  0.3125 0.109375 0  0.328125 0.109375 0  0.34375 0.109375 0  0.359375 0.109375 0  0.375 0.109375 0  0.390625 0.109375 0  0.40625 0.109375 0  0.421875 0.109375 0  0.4375 0.109375 0  0.453125 0.109375 0  0.46875 0.109375 0  0.484375 0.109375 0  0.5 0.109375 0  0.515625 0.109375 0  0.53125 0.109375 0  0.546875 0.109375 0  0.5625 0.109375 0  0.578125 0.109375 0  0.59375 0.109375 0  0.609375 0.109375 0  0.625 0.109375 0  0.640625 0.109375 0  0.65625 0.109375 0  0.671875 0.109375 0  0.6875 0.109375 0  0.703125 0.109375 0  0.71875 0.109375 0  0.734375 0.109375 0  0.75 0.109375 0  0.765625 0.109375 0  0.78125 0.109375 0  0.796875 0.109375 0  0.8125 0.109375 0  0.828125 0.109375 0  0.84375 0.109375 0  0.859375 0.109375 0  0.875 0.109375 0  0.890625 0.109375 0  0.90625 0.109375 0  0.921875 0.109375 0  0.9375 0.109375 0  0.953125 0.109375 0  0.96875 0.109375 0  0.984375 0.109375 0  1 0.109375 0  0 0.125 0  0.015625 0.125 0  0.03125 0.125 0  0.046875 0.125 0  0.0625 0.125 0  0.078125 0.125 0  0.09375 0.125 0  0.109375 0.125 0  0.125 0.12
[...]
<PointData  Scalars="f_9634"> 
<DataArray  type="Float64"  Name="f_9634"  format="ascii">6.7036168436252833e-15  6.8175490580572713e-15  7.0061256015726858e-15  7.2111284442877702e-15  7.4236712799656025e-15  7.6426086762078999e-15  7.8680252616132358e-15  8.1002102475640400e-15  8.3394901587513272e-15  8.5861997887161058e-15  8.8406772762246549e-15  9.1032683378461356e-15  9.3743470801008057e-15  9.6543719568846593e-15  9.9439888597330032e-15  1.0244118907848190e-14  1.0555737130180198e-14  1.0878605744994599e-14  1.1207752081351665e-14  1.1526610909200283e-14  1.1797427015334579e-14  1.1953050496703193e-14  1.1897950098063769e-14  1.1526205290197906e-14  1.0757038411461022e-14  9.5758769931364599e-15  8.0594842288873107e-15  6.3670025828103791e-15  4.6960548987144708e-15  3.2234604228187716e-15  2.0586792121995528e-15  1.2288132677793401e-15  6.9485209266065405e-16  3.8392650428960980e-16  2.1977355555532164e-16  1.4105431549990910e-16  1.0669297904835312e-16  9.2999812938978406e-17  8.7991956043596029e-17  8.6292048925759855e-17  8.5741416014360708e-17  8.5559373787680415e-17  8.5489608077644945e-17  8.5454779574433457e-17  8.5432826572116534e-17  8.5417328009120453e-17  8.5406026918696625e-17  8.5397791287588799e-17  8.5391860410569946e-17  8.5387657624788165e-17  8.5384733925207269e-17  8.5382741229838348e-17  8.5381413384908392e-17  8.5380550388893234e-17  8.5380004884794254e-17  8.5379670658545846e-17  8.5379472995566479e-17  8.5379360750102306e-17  8.5379299965278210e-17  8.5379268865556539e-17  8.5379254032991319e-17  8.5379247576012153e-17  8.5379245104760402e-17  8.5379244339555796e-17  8.5379244197506648e-17  6.7097610980637553e-15  6.8111954518245500e-15  7.0052744884263893e-15  7.2110127922027086e-15  7.4236754824944263e-15  7.6426334925884754e-15  7.8680549022857265e-15  8.1002421784604216e-15  8.3395241187919411e-15  8.5862420641662767e-15  8.8407785014195555e-15  9.1036897430869692e-15  9.3761485367958720e-15  9.6611738731778315e-15  9.9665087655865912e-15  1.0310203138982389e-14  1.0729164399129163e-14  1.1288016713494318e-14  1.2080298718589744e-14  1.3209111403427266e-14  1.4736629584935773e-14  1.6608344056434929e-14  1.8585964627998943e-14  2.0243420904187261e-14  2.1066335359740486e-14  2.0638411997770417e-14  1.8829956648837803e-14  1.5880361043187606e-14  1.2318695462304777e-14  8.7632607647336516e-15  5.7098837760486641e-15  3.4108329000146078e-15  1.8770143627343178e-15  9.6441224913231140e-16  4.7804750852518549e-16  2.4514024412205109e-16  1.4467065071778042e-16  1.0553767305795440e-16  9.1733938999708170e-17  8.7300372672928729e-17  8.5986201233934822e-17  8.5612685418680798e-17  8.5499909634255402e-17  8.5456472278170372e-17  8.5433005676344642e-17  8.5417286521038640e-17  8.5405968890855875e-17  8.5397742401557756e-17  8.5391821649488331e-17  8.5387627430595711e-17  8.5384710762210506e-17  8.5382723764570738e-17  8.5381400468022720e-17  8.5380541038892472e-17  8.5379998276226220e-17  8.5379666110152629e-17  8.5379469957038219e-17  8.5379358787423843e-17  8.5379298745112893e-17  8.5379268139272555e-17  8.5379253620971697e-17  8.5379247352836957e-17  8.5379244985733654e-17  8.5379244268877766e-17  8.5379244138176444e-17  6.7093761328143197e-15  6.8077496628452039e-15  7.0047390769008113e-15  7.2109494095330143e-15  7.4236890179488606e-15  7.6426601428705451e-15  7.8680812502893499e-15  8.1002631615506322e-15  8.3395651614393288e-15  8.5865299158085417e-15  8.8424986682151516e-15  9.1117844271229272e-15  9.4082770163574668e-15  9.7728488784919540e-15  1.0312830342390565e-14  1.1277496679810367e-14  1.3174364474769938e-14  1.6896531289411261e-14  2.3767493962442546e-14  3.5347819275956795e-14  5.2865797988177593e-14  7.6314236060421482e-14  1.0357729002624348e-13  1.3020683100446056e-13  1.5035094526079293e-13  1.5873333267324290e-13  1.5281331592431004e-13  1.3393454616544437e-13  1.0676615904800456e-13  7.7360181816287993e-14  5.0932636183958604e-14  3.0468164469727344e-14  1.6567298063692232e-14  8.2010599990222708e-15  3.7121487687392776e-15  1.5562124426931574e-15  6.2673385941637460e-16  2.6628041407382487e-16  1.4033548345450301e-16  1.0062309449675534e-16  8.9296559023660034e-17  8.6358040923568070e-17  8.5651881009177088e-17  8.5484465648343671e-17  8.5437613457900830e-17  8.5417921686443910e-17  8.5406004753079248e-17  8.5397705373105828e-17  8.5391784262704915e-17  8.5387597390292948e-17  8.5384687622812393e-17  8.5382706309969440e-17  8.5381387560461508e-17  8.5380531697758766e-17  8.5379991675860429e-17  8.5379661568900724e-17  8.5379466924044066e-17  8.5379356827905089e-17  8.5379297524648486e-17  8.5379267407754010e-17  8.5379253196935911e-17  8.5379247108910454e-17  8.5379244835896194e-17  8.5379244158229313e-17  8.5379244035924318e-17  6.7078996646693727e-15  6.8058143640935389e-15  7.0044099895694482e-15  7.2109166824770949e-15  7.4237013717977439e-15  7.6426688629367290e-15  7.8680788809211332e-15  8.1003604176274248e-15  8.3405618525887690e-15  8.5924844460386122e-15  8.8706792342881660e-15  9.2267453593234425e-15  9.8256343766833174e-15  1.1139980119670568e-14  1.4379114929069025e-14  2.2290886745607145e-14  4.0369819203393525e-14  7.8140650241747363e-14  1.4953608484844541e-13  2.7078235188692659e-13  4.5443991436107831e-13  7.0012521526842874e-13  9.8570062867697483e-13  1.2652266013716865e-12  1.4786616883110288e-12  1.5721141824288429e-12  1.5197224181734714e-12  1.3351312094069486e-12  1.0656583569687878e-12  7.7255439440282250e-13  5.0858260684993458e-13  3.0397679258520767e-13  1.6493725232504148e-13  8.1246243298675053e-14  3.6344346794382123e-14  1.4782946257770803e-14  5.4903113967094644e-15  1.8884770675712665e-15  6.3106737776426702e-16  2.3524855398078643e-16  1.2278540906519688e-16  9.3910828613708396e-17  8.7195985521469784e-17  8.5770532737103647e-17  8.5485585170227374e-17  8.5425160702950340e-17  8.5406952050841124e-17  8.5397782353404188e-17  8.5391759809085008e-17  8.5387568687610174e-17  8.5384664616415502e-17  8.5382688874884819e-17  8.5381374662460623e-17  8.5380522364778713e-17  8.5379985082340250e-17  8.5379657032374897e-17  8.5379463892466977e-17  8.5379354864912869e-17  8.5379296293868096e-17  8.5379266656935442e-17  8.5379252742719108e-17  8.5379246823001500e-17  8.5379244633246985e-17  8.5379243987439916e-17  8.5379243871416214e-17  6.7066363585771997e-15  6.8047004717240707e-15  7.0042056580999373e-15  7.2108868425875660e-15  7.4236796578437182e-15  7.6426510597131625e-15  7.8684082702630093e-15  8.1032893876142315e-15  8.3575471592184408e-15  8.6739679453818879e-15  9.2148557807804319e-15  1.0536523720312355e-14  1.4360391057122775e-14  2.5485427187595910e-14  5.5915478370358504e-14  1.3241418112795994e-13  3.0763922779231658e-13  6.7156947576066753e-13  1.3540117299609174e-12  2.5037243427294870e-12  4.2323712102013729e-12  6.5291656923037255e-12  9.1817531429716628e-12  1.1760809477128246e-11  1.3712502646079402e-11  1.4545774468181229e-11  1.4031545326206310e-11  1.2304331142623339e-11  9.8050967876297737e-12  7.0984411543861204e-12  4.6674811549340379e-12  2.7868599809403960e-12  1.5106971367817168e-12  7.4336049505563912e-13  3.3199577590987468e-13  1.3457881821784581e-13  4.9531193176068066e-14  1.6576495003688689e-14  5.0743769745829056e-15  1.4543249637358161e-15  4.2609206373111478e-16  1.6233434433588090e-16  1.0119010217289227e-16  8.8364943573879733e-17  8.5921480594223335e-17  8.5491481381962035e-17  8.5416053246870220e-17  8.5398878941053973e-17  8.5391850867767807e-17  8.5387551846367433e-17  8.5384642720300991e-17  8.5382671540816438e-17  8.5381361779030493e-17  8.5380513038222663e-17  8.5379978492036713e-17  8.5379652494655487e-17  8.5379460853220694e-17  8.5379352885318677e-17  8.5379295035010286e-17  8.5379265864455908e-17  8.5379252232301660e-17  8.5379246467265760e-17  8.5379244350243814e-17  8.5379243730424498e-17  8.5379243619114091e-17  6.7057598682323737e-15  6.8040376870308392e-15  7.0040525025528141e-15  7.2108162329412929e-15  7.4236818079888477e-15  7.6435844330116211e-15  7.8757748314347113e-15  8.1456812430017404e-15  8.5656303400430082e-15  9.5849376551020679e-15  1.2834898866018288e-14  2.3699809704788921e-14  5.8324067471444473e-14  1.6055257161414104e-13  4.3768706571547232e-13  1.1245993693305339e-12  2.6761280883976391e-12  5.8584931879819816e-12  1.1761788987873300e-11  2.1614692682154769e-11  3.6309023028552788e-11  5.5691187636763678e-11  7.7921475944787826e-11  9.9375066489609425e-11  1.1543741113110676e-10  1.2206895752450076e-10  1.1744360842340871e-10  1.0276025913419797e-10  8.1738081976358530e-11  5.9085456302837181e-11  3.8803000319870883e-11  2.3145443388567626e-11  1.2536633009049670e-11  6.1648457235563989e-12  2.7517580524609294e-12  1.1147510885976573e-12  4.0980828570298179e-13  1.3672240749874109e-13  4.1420355262357291e-14  1.1427146990467598e-14  2.9077112284871689e-15  7.2228480526522420e-16  2.1574242514286211e-16  1.0960910871542944e-16  8.9492511745404259e-17  8.6035451249538067e-17  8.5491098018451476e-17  8.5408224268395004e-17  8.5392876679905484e-17  8.5387630959866414e-17  8.5384629751087204e-17  8.5382654964012113e-17  8.5381348957224525e-17  8.5380503716486294e-17  8.5379971897244693e-17  8.5379647943977274e-17  8.5379457789740308e-17  8.5379350867167812e-17  8.5379293720762113e-17  8.5379264998523687e-17  8.5379251631097365e-17  8.5379246006358257e-17  8.5379243952348105e-17  8.5379243353783869e-17  8.5379243245984079e-17  6.7051710839112322e-15  6.8035976688470482e-15  7.0038902520732490e-15  7.2109109821177098e-15  7.4259121060362394e-15  7.6602414602614519e-15  7.9727852253079279e-15  8.6349419251900629e-15  1.0776643071518946e-14  1.8681949919913820e-14  4.7208994370673509e-14  1.4354840108230928e-13  4.4472687364694404e-13  1.3130681825093859e-12  3.6157486476709210e-12  9.2156815989540025e-12  2.1662923746182538e-11  4.6852448035920883e-11  9.3053617725230245e-11  1.6942983188358677e-10  2.8239683870385773e-10  4.3030935530827001e-10  5.9877572509804722e-10  7.6013058881380902e-10  8.7961003929777598e-10  9.2716891136543874e-10  8.8966644520959286e-10  7.7672222607314904e-10  6.1670378859968898e-10  4.4513180671532797e-10  2.9197973758108741e-10  1.7399559567723264e-10  9.4173755488565762e-11  4.6283357440679909e-11  2.0650513074441586e-11  8.3630470695872866e-12  3.0736298343948856e-12  1.0250167418218783e-12  3.1015389737321857e-13  8.5172381740101462e-14  2.1261655335391141e-14  4.8646284328537720e-15  1.0634051682154165e-15  2.6686241383005722e-16  1.1593578534621792e-16  9.0065447735827844e-17  8.6047616995598699e-17  8.5477821998555274e-17  8.5400733316029480e-17  8.5388411543790298e-17  8.5384682026086685e-17  8.5382643883853276e-17  8.5381336552150170e-17  8.5380494414435407e-17  8.5379965284819685e-17  8.5379643360099787e-17  8.5379454675410022e-17  8.5379348777524257e-17  8.5379292312686763e-17  8.5379264016822381e-17  8.5379250894969162e-17  8.5379245396165867e-17  8.5379243396441313e-17  8.5379242815284452e-17  8.5379242710041274e-17  6.7047187080027320e-15  6.8032776573772749e-15  7.0041982781246568e-15  7.2156112505149427e-15  7.4609082765989346e-15  7.8703292754240021e-15  9.0647530900622355e-15  1.3701508279363936e-14  3.2145366160092015e-14  1.0155277058344627e-13  3.4481626685666573e-13  1.1370083893557241e-12  3.5316717501817425e-12  1.0238918459148205e-11  2.7598496897962675e-11  6.8971774022858269e-11  1.5940833580081526e-10  3.3990224931428788e-10  6.6714393426235785e-10  1.2028656781823204e-09  1.9886448065299951e-09  3.0098954943802258e-09  4.1649181616054093e-09  5.2627754383985521e-09  6.0665813849960368e-09  6.3742052889419896e-09  6.1002496877256127e-09  5.3142433866114013e-09  4.2119061858601496e-09  3.0357254118130954e-09  1.9889435803971267e-09  1.1841593724541033e-09  6.4046461588670956e-10  3.1460223802060418e-10  1.4031583203081776e-10  5.6811491697943235e-11  2.0876854746792680e-11  6.9617039803019757e-12  2.1062965044856389e-12  5.7813856908300621e-13  1.4397864762698221e-13  3.2568303351588347e-14  6.7342875944371348e-15  1.3192628477041136e-15  2.9297341626338907e-16  1.1705782784535344e-16  8.9777036156368909e-17  8.5944669894270471e-17  8.5453648462439761e-17  8.5393821597509507e-17  8.5385165087794525e-17  8.5382669097720809e-17  8.5381326901891173e-17  8.5380485276582441e-17  8.5379958640516178e-17  8.5379638711875583e-17  8.5379451471089319e-17  8.5379346570502674e-17  8.5379290759757237e-17  8.5379262865303456e-17  8.5379249968946878e-17  8.5379244582258295e-17  8.5379242629108126e-17  8.5379242062197797e-17  8.5379241958729334e-17  6.7044691869045737e-15  6.8039700368154135e-15  7.0129573315225283e-15  7.2848055237383244e-15  7.9001341445178420e-15  1.0236427099654476e-14  2.0289346883132490e-14  6.1781354765761492e-14  2.2120441035032152e-13  7.9129131398909666e-13  2.6942592259686748e-12  8.6321954411553415e-12  2.5941495037192874e-11  7.2970551543252337e-11  1.9165319003410478e-10  4.6866636327982543e-10  1.0638444589887803e-09  2.2349362689754750e-09  4.3332605239725612e-09  7.7345757681375817e-09  1.2681539052199030e-08  1.9063104216463187e-08  2.6229787677683105e-08  3.2989522214025068e-08  3.7881810604539730e-08  3.9676286001063472e-08  3.7871729074619513e-08  3.2921259056489468e-08  2.6046772612290493e-08  1.8746676831775325e-08  1.2268609590542472e-08  7.2979423192399341e-09  3.9445172394848469e-09  1.9366322193912577e-09  8.6346722598205960e-10  3.4953201171199590e-10  1.2843303043052889e-10  4.2828127921743577e-11  1.2958795437478953e-11  3.5572284913625277e-12  8.8576128970852749e-13  2.0007755988876049e-13  4.1034918268895553e-14  7.6872205785934644e-15  1.3646597675623425e-15  2.8052854978832412e-16  1.1237410615956246e-16  8.8774990065167134e-17  8.5774787554549818e-17  8.5426805324991549e-17  8.5388215445126408e-17  8.5382910752838681e-17  8.5381333740860505e-17  8.5380477224996969e-17  8.5379951986612530e-17  8.5379633956723451e-17  8.5379448122877651e-17  8.5379344185434593e-17  8.5379288996873008e-17  8.5379261476781552e-17  8.5379248785663249e-17  8.5379243498112233e-17  8.5379241584778943e-17  8.5379241029488843e-17  8.5379240927134511e-17  6.7060548289953818e-15  6.8171142130271970e-15  7.1406635396531668e-15  8.1824230211388031e-15  1.2960877033209721e-14  3.4714284986672078e-14  1.2593921420083065e-13  4.7856183815002066e-13  1.7467139283090649e-12  6.0205509426016178e-12  1.9571051929987494e-11  6.0031945067868428e-11  1.7366424316030809e-10  4.7291733742270053e-10  1.2087921690949969e-09  2.8900035122503133e-09  6.4390846320993271e-09  1.3321745942965700e-08  2.5506673766288142e-08  4.5060866672831714e-08  7.3259145244914486e-08  1.0936195749989215e-07  1.4961892244423873e-07  1.8729515650339038e-07  2.1424065350276062e-07  2.2367736613678256e-07  2.1294859464235683e-07  1.8471943146668321e-07  1.4589527518942316e-07  1.0486009424435937e-07  6.8549618670223481e-08  4.0741819823369891e-08  2.2006715540354728e-08  1.0799607226372647e-08  4.8136350202340417e-09  1.9482219267106078e-09  7.1581695993990586e-10  2.3871001993646046e-10  7.2236760517733655e-11  1.9832831130863783e-11  4.9394293600879552e-12  1.1157763517759352e-12  2.2861175319352849e-13  4.2525659481578247e-14  7.2304081676459225e-15  1.1757013263256329e-15  2.3618050446618930e-16  1.0429049869378164e-16  8.7536377071815409e-17  8.5607958927380389e-17  8.5405070169853541e-17  8.5384317042020607e-17  8.5381429484796861e-17  8.5380475228121707e-17  8.5379945583698920e-17  8.5379629049509629e-17  8.5379444560490222e-17  8.5379341545101995e-17  8.5379286943268712e-17  8.5379259769298409e-17  8.5379247263537520e-17  8.5379242063143087e-17  8.5379240183727192e-17  8.5379239637849632e-17  8.5379239536034893e-17  6.7137858933155829e-15  7.0302987096621468e-15  8.9551165030642822e-15  1.9013227084456965e-14  6.6181674909555895e-14  2.6446119503900765e-13  1.0270672393199151e-12  3.7538946420279395e-12  1.2914405631080821e-11  4.2009870099340037e-11  1.2964518084077057e-10  3.8003102126708170e-10  1.0573272455061176e-09  2.7855131267050293e-09  6.9246402369979635e-09  1.6176997648534937e-08  3.5361021366640823e-08  7.2017826388720182e-08  1.3612608481914820e-07  2.3796331794549863e-07  3.8355345844435863e-07  5.6854134976758931e-07  7.7333477612951051e-07  9.6348609296492523e-07  1.0978174509853571e-06  1.1425253271258574e-06  1.0848953495075616e-06  9.3908801943372363e-07  7.4044471964258794e-07  5.3145735566097518e-07  3.4705324332141341e-07  2.0609693937312936e-07  1.1125455885549922e-07  5.4573303187025327e-08  2.4317686352138971e-08  9.8406105511192756e-09  3.6155120638672614e-09  1.2057728500053189e-09  3.6493618697521497e-10  1.0021630033815761e-10  2.4966038103187724e-11  5.6412718319358724e-12  1.1560146734404894e-12  2.1484836265511293e-13  3.6258491143002978e-14  5.6079860658540103e-15  8.4952313643946178e-16  1.8119971204865278e-16  9.6273862727107266e-17  8.6507151828753049e-17  8.5488867672109966e-17  8.5391375269980587e-17  8.5381957210991993e-17  8.5380502979403396e-17  8.5379940848105005e-17  8.5379623992179053e-17  8.5379440697808998e-17  8.5379338554033715e-17  8.5379284500760230e-17  8.5379257644249976e-17  8.5379245304735347e-17  8.5379240180562873e-17  8.5379238329918054e-17  8.5379237791575078e-17  8.5379237689787567e-17  6.9535500278129324e-15  1.0734988041432695e-14  3.2459183979717872e-14  1.3539792458775335e-13  5.6435124503517081e-13  2.1913463726150475e-12  7.9250849368244362e-12  2.6941674567883230e-11  8.6779361105152217e-11  2.6625929146417540e-10  7.8046478645998880e-10  2.1871376822752264e-09  5.8526669139440914e-09  1.4913442536064462e-08  3.6043973312788220e-08  8.2242687834342376e-08  1.7629431039528094e-07  3.5331739542961597e-07  6.5907665424716134e-07  1.1397691123731585e-06  1.8209648813914086e-06  2.6798257921110796e-06  3.6236987651831635e-06  4.4930012371615370e-06  5.0992912340211646e-06  5.2899103307292318e-06  5.0099427114647150e-06  4.3274232618045812e-06  3.4062309209820691e-06  2.4415160352923997e-06  1.5926660179854069e-06  9.4503067546291923e-07  5.0983559332183707e-07  2.4998234881242139e-07  1.1136165029309392e-07  4.5058609800440521e-08  1.6554568985098421e-08  5.5213974015845385e-09  1.6713720368721308e-09  4.5909167372150259e-10  1.1440445107302094e-10  2.5859724781750135e-11  5.3011392861256727e-12  9.8542990835981313e-13  1.6613150901742057e-13  2.5449212070689259e-14  3.5967771005762942e-15  5.2590074114755082e-16  1.3546008475516343e-16  9.0542712933000505e-17  8.5865286718137068e-17  8.5423158820141581e-17  8.5384376567463742e-17  8.5380661542947415e-17  8.5379944030138933e-17  8.5379619040416999e-17  8.5379436441533157e-17  8.5379335097078347e-17  8.5379281551810023e-17  8.5379254984288644e-17  8.5379242792931252e-17  8.5379237735077969e-17  8.5379235908709778e-17  8.5379235376285255e-17  8.5379235274057892e-17  1.4505421934163733e-14  6.3109640548745300e-14  2.8970979809677284e-13  1.2154984786929587e-12  4.6510951459605348e-12  1.6503257845318681e-11  5.5047633582191671e-11  1.7427722347514516e-10  5.2711438647721382e-10  1.5294097513941376e-09  4.2659069858900541e-09  1.1441217439281783e-08  2.9461432374872619e-08  7.2616002655259196e-08  1.7059040818407243e-07  3.8003598549627062e-07  7.9854712818954228e-07  1.5742198081100054e-06  2.8970256120393469e-06  4.9546988160416835e-06  7.8445434229310961e-06  1.1459379847426262e-05  1.5402295036427651e-05  1.9003374021293996e-05  2.1481230700632141e-05  2.2211431469697008e-05  2.0980066980121010e-05  1.8083007636804942e-05  1.4209113948236264e-05  1.0170882800017826e-05  6.6276580877474161e-06  3.9294136008253584e-06  2.1186151073262688e-06  1.0383678144742512e-06  4.6245118735017081e-07  1.8709197258039272e-07  6.8737381268220203e-08  2.2927967875501127e-08  6.9417504727022698e-09  1.9072492556101488e-09  4.7543557629323847e-10  1.0750727363663959e-10  2.2047895651047404e-11  4.1002308040015087e-12  6.9138368701315346e-13  1.0574111825809331e-13  1.4721068375211797e-14  1.9225958850282713e-15  2.9434878245132932e-16  1.0691769437407