<?xml version="1.0"?>
<VTKFile type="UnstructuredGrid"  version="0.1"  >
<UnstructuredGrid>
<Piece  NumberOfPoints="4225" NumberOfCells="8192">
<Points>
<DataArray  type="Float64"  NumberOfComponents="3"  format="ascii">0 0 0  0.015625 0 0  0.03125 0 0  0.046875 0 0  0.0625 0 0  0.078125 0 0  0.09375 0 0  0.109375 0 0  0.125 0 0  0.140625 0 0  0.15625 0 0  0.171875 0 0  0.1875 0 0  0.203125 0 0  0.21875 0 0  0.234375 0 0  0.25 0 0  0.265625 0 0  0.28125 0 0  0.296875 0 0  0.3125 0 0  0.328125 0 0  0.34375 0 0  0.359375 0 0  0.375 0 0  0.390625 0 0  0.40625 0 0  0.421875 0 0  0.4375 0 0  0.453125 0 0  0.46875 0 0  0.484375 0 0  0.5 0 0  0.515625 0 0  0.53125 0 0  0.546875 0 0  0.5625 0 0  0.578125 0 0  0.59375 0 0  0.609375 0 0  0.625 0 0  0.640625 0 0  0.65625 0 0  0.671875 0 0  0.6875 0 0  0.703125 0 0  0.71875 0 0  0.734375 0 0  0.75 0 0  0.765625 0 0  0.78125 0 0  0.796875 0 0  0.8125 0 0  0.828125 0 0  0.84375 0 0  0.859375 0 0  0.875 0 0  0.890625 0 0  0.90625 0 0  0.921875 0 0  0.9375 0 0  0.953125 0 0  0.96875 0 0  0.984375 0 0  1 0 0  0 0.015625 0  0.015625 0.015625 0  0.03125 0.015625 0  0.046875 0.015625 0  0.0625 0.015625 0  0.078125 0.015625 0  0.09375 0.015625 0  0.109375 0.015625 0  0.125 0.015625 0  0.140625 0.015625 0  0.15625 0.015625 0  0.171875 0.015625 0  0.1875 0.015625 0  0.203125 0.015625 0  0.21875 0.015625 0  0.234375 0.015625 0  0.25 0.015625 0  0.265625 0.015625 0  0.28125 0.015625 0  0.296875 0.015625 0  0.3125 0.015625 0  0.328125 0.015625 0  0.34375 0.015625 0  0.359375 0.015625 0  0.375 0.015625 0  0.390625 0.015625 0  0.40625 0.015625 0  0.421875 0.015625 0  0.4375 0.015625 0  0.453125 0.015625 0  0.46875 0.015625 0  0.484375 0.015625 0  0.5 0.015625 0  0.515625 0.015625 0  0.53125 0.015625 0  0.546875 0.015625 0  0.5625 0.015625 0  0.578125 0.015625 0  0.59375 0.015625 0  0.609375 0.015625 0  0.625 0.015625 0  0.640625 0.015625 0  0.65625 0.015625 0  0.671875 0.015625 0  0.6875 0.015625 0  0.703125 0.015625 0  0.71875 0.015625 0  0.734375 0.015625 0  0.75 0.015625 0  0.765625 0.015625 0  0.78125 0.015625 0  0.796875 0.015625 0  0.8125 0.015625 0  0.828125 0.015625 0  0.84375 0.015625 0  0.859375 0.015625 0  0.875 0.015625 0  0.890625 0.015625 0  0.90625 0.015625 0  0.921875 0.015625 0  0.9375 0.015625 0  0.953125 0.015625 0  0.96875 0.015625 0  0.984375 0.015625 0  1 0.015625 0  0 0.03125 0  0.015625 0.03125 0  0.03125 0.03125 0  0.046875 0.03125 0  0.0625 0.03125 0  0.078125 0.03125 0  0.09375 0.03125 0  0.109375 0.03125 0  0.125 0.03125 0  0.140625 0.03125 0  0.15625 0.03125 0  0.171875 0.03125 0  0.1875 0.03125 0  0.203125 0.03125 0  0.21875 0.03125 0  0.234375 0.03125 0  0.25 0.03125 0  0.265625 0.03125 0  0.28125 0.03125 0  0.296875 0.03125 0  0.3125 0.03125 0  0.328125 0.03125 0  0.34375 0.03125 0  0.359375 0.03125 0  0.375 0.03125 0  0.390625 0.03125 0  0.40625 0.03125 0  0.421875 0.03125 0  0.4375 0.03125 0  0.453125 0.03125 0  0.46875 0.03125 0  0.484375 0.03125 0  0.5 0.03125 0  0.515625 0.03125 0  0.53125 0.03125 0  0.546875 0.03125 0  0.5625 0.03125 0  0.578125 0.03125 0  0.59375 0.03125 0  0.609375 0.03125 0  0.625 0.03125 0  0.640625 0.03125 0  0.65625 0.03125 0  0.671875 0.03125 0  0.6875 0.03125 0  0.703125 0.03125 0  0.71875 0.03125 0  0.734375 0.03125 0  0.75 0.03125 0  0.765625 0.03125 0  0.78125 0.03125 0  0.796875 0.03125 0  0.8125 0.03125 0  0.828125 0.03125 0  0.84375 0.03125 0  0.859375 0.03125 0  0.875 0.03125 0  0.890625 0.03125 0  0.90625 0.03125 0  0.921875 0.03125 0  0.9375 0.03125 0  0.953125 0.03125 0  0.96875 0.03125 0  0.984375 0.03125 0  1 0.03125 0  0 0.046875 0  0.015625 0.046875 0  0.03125 0.046875 0  0.046875 0.046875 0  0.0625 0.046875 0  0.078125 0.046875 0  0.09375 0.046875 0  0.109375 0.046875 0  0.125 0.046875 0  0.140625 0.046875 0  0.15625 0.046875 0  0.171875 0.046875 0  0.1875 0.046875 0  0.203125 0.046875 0  0.21875 0.046875 0  0.234375 0.046875 0  0.25 0.046875 0  0.265625 0.046875 0  0.28125 0.046875 0  0.296875 0.046875 0  0.3125 0.046875 0  0.328125 0.046875 0  0.34375 0.046875 0  0.359375 0.046875 0  0.375 0.046875 0  0.390625 0.046875 0  0.40625 0.046875 0  0.421875 0.046875 0  0.4375 0.046875 0  0.453125 0.046875 0  0.46875 0.046875 0  0.484375 0.046875 0  0.5 0.046875 0  0.515625 0.046875 0  0.53125 0.046875 0  0.546875 0.046875 0  0.5625 0.046875 0  0.578125 0.046875 0  0.59375 0.046875 0  0.609375 0.046875 0  0.625 0.046875 0  0.640625 0.046875 0  0.65625 0.046875 0  0.671875 0.046875 0  0.6875 0.046875 0  0.703125 0.046875 0  0.71875 0.046875 0  0.734375 0.046875 0  0.75 0.046875 0  0.765625 0.046875 0  0.78125 0.046875 0  0.796875 0.046875 0  0.8125 0.046875 0  0.828125 0.046875 0  0.84375 0.046875 0  0.859375 0.046875 0  0.875 0.046875 0  0.890625 0.046875 0  0.90625 0.046875 0  0.921875 0.046875 0  0.9375 0.046875 0  0.953125 0.046875 0  0.96875 0.046875 0  0.984375 0.046875 0  1 0.046875 0  0 0.0625 0  0.015625 0.0625 0  0.03125 0.0625 0  0.046875 0.0625 0  0.0625 0.0625 0  0.078125 0.0625 0  0.09375 0.0625 0  0.109375 0.0625 0  0.125 0.0625 0  0.140625 0.0625 0  0.15625 0.0625 0  0.171875 0.0625 0  0.1875 0.0625 0  0.203125 0.0625 0  0.21875 0.0625 0  0.234375 0.0625 0  0.25 0.0625 0  0.265625 0.0625 0  0.28125 0.0625 0  0.296875 0.0625 0  0.3125 0.0625 0  0.328125 0.0625 0  0.34375 0.0625 0  0.359375 0.0625 0  0.375 0.0625 0  0.390625 0.0625 0  0.40625 0.0625 0  0.421875 0.0625 0  0.4375 0.0625 0  0.453125 0.0625 0  0.46875 0.0625 0  0.484375 0.0625 0  0.5 0.0625 0  0.515625 0.0625 0  0.53125 0.0625 0  0.546875 0.0625 0  0.5625 0.0625 0  0.578125 0.0625 0  0.59375 0.0625 0  0.609375 0.0625 0  0.625 0.0625 0  0.640625 0.0625 0  0.65625 0.0625 0  0.671875 0.0625 0  0.6875 0.0625 0  0.703125 0.0625 0  0.71875 0.0625 0  0.734375 0.0625 0  0.75 0.0625 0  0.765625 0.0625 0  0.78125 0.0625 0  0.796875 0.0625 0  0.8125 0.0625 0  0.828125 0.0625 0  0.84375 0.0625 0  0.859375 0.0625 0  0.875 0.0625 0  0.890625 0.0625 0  0.90625 0.0625 0  0.921875 0.0625 0  0.9375 0.0625 0  0.953125 0.0625 0  0.96875 0.0625 0  0.984375 0.0625 0  1 0.0625 0  0 0.078125 0  0.015625 0.078125 0  0.03125 0.078125 0  0.046875 0.078125 0  0.0625 0.078125 0  0.078125 0.078125 0  0.09375 0.078125 0  0.109375 0.078125 0  0.125 0.078125 0  0.140625 0.078125 0  0.15625 0.078125 0  0.171875 0.078125 0  0.1875 0.078125 0  0.203125 0.078125 0  0.21875 0.078125 0  0.234375 0.078125 0  0.25 0.078125 0  0.265625 0.078125 0  0.28125 0.078125 0  0.296875 0.078125 0  0.3125 0.078125 0  0.328125 0.078125 0  0.34375 0.078125 0  0.359375 0.078125 0  0.375 0.078125 0  0.390625 0.078125 0  0.40625 0.078125 0  0.421875 0.078125 0  0.4375 0.078125 0  0.453125 0.078125 0  0.46875 0.078125 0  0.484375 0.078125 0  0.5 0.078125 0  0.515625 0.078125 0  0.53125 0.078125 0  0.546875 0.078125 0  0.5625 0.078125 0  0.578125 0.078125 0  0.59375 0.078125 0  0.609375 0.078125 0  0.625 0.078125 0  0.640625 0.078125 0  0.65625 0.078125 0  0.671875 0.078125 0  0.6875 0.078125 0  0.703125 0.078125 0  0.71875 0.078125 0  0.734375 0.078125 0  0.75 0.078125 0  0.765625 0.078125 0  0.78125 0.078125 0  0.796875 0.078125 0  0.8125 0.078125 0  0.828125 0.078125 0  0.84375 0.078125 0  0.859375 0.078125 0  0.875 0.078125 0  0.890625 0.078125 0  0.90625 0.078125 0  0.921875 0.078125 0  0.9375 0.078125 0  0.953125 0.078125 0  0.96875 0.078125 0  0.984375 0.078125 0  1 0.078125 0  0 0.09375 0  0.015625 0.09375 0  0.03125 0.09375 0  0.046875 0.09375 0  0.0625 0.09375 0  0.078125 0.09375 0  0.09375 0.09375 0  0.109375 0.09375 0  0.125 0.09375 0  0.140625 0.09375 0  0.15625 0.09375 0  0.171875 0.09375 0  0.1875 0.09375 0  0.203125 0.09375 0  0.21875 0.09375 0  0.234375 0.09375 0  0.25 0.09375 0  0.265625 0.09375 0  0.28125 0.09375 0  0.296875 0.09375 0  0.3125 0.09375 0  0.328125 0.09375 0  0.34375 0.09375 0  0.359375 0.09375 0  0.375 0.09375 0  0.390625 0.09375 0  0.40625 0.09375 0  0.421875 0.09375 0  0.4375 0.09375 0  0.453125 0.09375 0  0.46875 0.09375 0  0.484375 0.09375 0  0.5 0.09375 0  0.515625 0.09375 0  0.53125 0.09375 0  0.546875 0.09375 0  0.5625 0.09375 0  0.578125 0.09375 0  0.59375 0.09375 0  0.609375 0.09375 0  0.625 0.09375 0  0.640625 0.09375 0  0.65625 0.09375 0  0.671875 0.09375 0  0.6875 0.09375 0  0.703125 0.09375 0  0.71875 0.09375 0  0.734375 0.09375 0  0.75 0.09375 0  0.765625 0.09375 0  0.78125 0.09375 0  0.796875 0.09375 0  0.8125 0.09375 0  0.828125 0.09375 0  0.84375 0.09375 0  0.859375 0.09375 0  0.875 0.09375 0  0.890625 0.09375 0  0.90625 0.09375 0  0.921875 0.09375 0  0.9375 0.09375 0  0.953125 0.09375 0  0.96875 0.09375 0  0.984375 0.09375 0  1 0.09375 0  0 0.109375 0  0.015625 0.109375 0  0.03125 0.109375 0  0.046875 0.109375 0  0.0625 0.109375 0  0.078125 0.109375 0  0.09375 0.109375 0  0.109375 0.109375 0  0.125 0.109375 0  0.140625 0.109375 0  0.15625 0.109375 0  0.171875 0.109375 0  0.1875 0.109375 0  0.203125 0.109375 0  0.21875 0.109375 0  0.234375 0.109375 0  0.25 0.109375 0  0.265625 0.109375 0  0.28125 0.109375 0  0.296875 0.109375 0  0.3125 0.109375 0  0.328125 0.109375 0  0.34375 0.109375 0  0.359375 0.109375 0  0.375 0.109375 0  0.390625 0.109375 0  0.40625 0.109375 0  0.421875 0.109375 0  0.4375 0.109375 0  0.453125 0.109375 0  0.46875 0.109375 0  0.484375 0.109375 0  0.5 0.109375 0  0.515625 0.109375 0  0.53125 0.109375 0  0.546875 0.109375 0  0.5625 0.109375 0  0.578125 0.109375 0  0.59375 0.109375 0  0.609375 0.109375 0  0.625 0.109375 0  0.640625 0.109375 0  0.65625 0.109375 0  0.671875 0.109375 0  0.6875 0.109375 0  0.703125 0.109375 0  0.71875 0.109375 0  0.734375 0.109375 0  0.75 0.109375 0  0.765625 0.109375 0  0.78125 0.109375 0  0.796875 0.109375 0  0.8125 0.109375 0  0.828125 0.109375 0  0.84375 0.109375 0  0.859375 0.109375 0  0.875 0.109375 0  0.890625 0.109375 0  0.90625 0.109375 0  0.921875 0.109375 0  0.9375 0.109375 0  0.953125 0.109375 0  0.96875 0.109375 0  0.984375 0.109375 0  1 0.109375 0  0 0.125 0  0.015625 0.125 0  0.03125 0.125 0  0.046875 0.125 0  0.0625 0.125 0  0.078125 0.125 0  0.09375 0.125 0  0.109375 0.125 0  0.125 0.12
[...]
<PointData  Scalars="f_9634"> 
<DataArray  type="Float64"  Name="f_9634"  format="ascii">3.9012535549652871e-04  3.4812089228685155e-04  2.7439767373991966e-04  2.1536848718658349e-04  1.6677240020653516e-04  1.2740916792613839e-04  9.5952116637515488e-05  7.1176505943866864e-05  5.1960514831886538e-05  3.7296532458782499e-05  2.6296673423199288e-05  1.8193820403380644e-05  1.2338548372402933e-05  8.1925535801978346e-06  5.3193420089426960e-06  3.3730083096961604e-06  2.0859467649078165e-06  1.2562836194353245e-06  7.3571428964768222e-07  4.1828405428821175e-07  2.3048484892754006e-07  1.2287264366691795e-07  6.3256776635290754e-08  3.1387745482128107e-08  1.4981049718920765e-08  6.8635402563544430e-09  3.0119053915566511e-09  1.2631528562780345e-09  5.0512608891262512e-10  1.9215770521058289e-10  6.9373803800729180e-11  2.3711751489246660e-11  7.6542537282932013e-12  2.3278178633059761e-12  6.6533233179169161e-13  1.7828513634041876e-13  4.4682386472949021e-14  1.0449352199962306e-14  2.2753189342144514e-15  4.6068116510476113e-16  8.6967851059468549e-17  1.5723551029829983e-17  3.1767948310921629e-18  1.1396050278190269e-18  8.3520573178670044e-19  7.9342195775145760e-19  7.8816165242456682e-19  7.8755521027092019e-19  7.8749127688316794e-19  7.8748512143476114e-19  7.8748458084505691e-19  7.8748453758544260e-19  7.8748453443418845e-19  7.8748453422539685e-19  7.8748453421281369e-19  7.8748453421211380e-19  7.8748453421206643e-19  7.8748453421204986e-19  7.8748453421203292e-19  7.8748453421201298e-19  7.8748453421198900e-19  7.8748453421195800e-19  7.8748453421191389e-19  7.8748453421184263e-19  7.8748453421170349e-19  5.3172329304259920e-04  4.7025145125955331e-04  3.7096482727515441e-04  2.9456965892545842e-04  2.3067748744753306e-04  1.7831655709203849e-04  1.3594471858733960e-04  1.0213568225850370e-04  7.5556083912035692e-05  5.4985412979295844e-05  3.9327468716688216e-05  2.7616773964562783e-05  1.9019913106918502e-05  1.2832274903331893e-05  8.4708797443152791e-06  5.4641319422441801e-06  3.4394280866769776e-06  2.1095681710240341e-06  1.2588594046596210e-06  7.2968351407641761e-07  4.1013358404232720e-07  2.2313700435786794e-07  1.1728901264954775e-07  5.9446851415538533e-08  2.8993161966958154e-08  1.3577857054628190e-08  6.0922212702270379e-09  2.6129871963876696e-09  1.0687989446939407e-09  4.1591734242648210e-10  1.5360486688107530e-10  5.3704279478288129e-11  1.7730771374479377e-11  5.5139869044029070e-12  1.6111267496482305e-12  4.4119912163634186e-13  1.1295653708222907e-13  2.6972196039956559e-14  5.9931428655687692e-15  1.2367368231461895e-15  2.3692288457776953e-16  4.2490634570004824e-17  7.5820130677448030e-18  1.8068173050074049e-18  9.2804801200604414e-19  8.0527199973535417e-19  7.8954696009773176e-19  7.8770333844829804e-19  7.8750574658631164e-19  7.8748641125523943e-19  7.8748468565743568e-19  7.8748454534244332e-19  7.8748453495601368e-19  7.8748453425665334e-19  7.8748453421383607e-19  7.8748453421144329e-19  7.8748453421131031e-19  7.8748453421129114e-19  7.8748453421127564e-19  7.8748453421125850e-19  7.8748453421123895e-19  7.8748453421121738e-19  7.8748453421119080e-19  7.8748453421116028e-19  7.8748453421113158e-19  9.3170155971061082e-04  8.3415174697031621e-04  6.7273362254237389e-04  5.4432907788258447e-04  4.3424115439804110e-04  3.4219140432585160e-04  2.6610828271183298e-04  2.0406444297598440e-04  1.5418150008818292e-04  1.1467432829518584e-04  8.3879617216892085e-05  6.0278584326753150e-05  4.2512562112808600e-05  2.9391381235681828e-05  1.9894821064246089e-05  1.3167783516052449e-05  8.5101677888874575e-06  5.3626580784884679e-06  3.2897631925124741e-06  1.9614575743416794e-06  1.1346725144243203e-06  6.3569225911056553e-07  3.4425101190390098e-07  1.7983845994288391e-07  9.0439235600244365e-08  4.3686595364861453e-08  2.0224169587263464e-08  8.9516961206096537e-09  3.7792289180517301e-09  1.5180624760147703e-09  5.7872077340381716e-10  2.0884806513879522e-10  7.1162878920529531e-11  2.2835755355571355e-11  6.8833172108076787e-12  1.9439915053221687e-12  5.1311912289741365e-13  1.2627274682223669e-13  2.8903223345901259e-14  6.1399777158472962e-15  1.2083002841082893e-15  2.2025954944578110e-16  3.7577284325679542e-17  6.4648001309705860e-18  1.5926531869757205e-18  8.9226344175796581e-19  7.9997770659868814e-19  7.8884756204240692e-19  7.8762044130106329e-19  7.8749690525022797e-19  7.8748556119691038e-19  7.8748461189328728e-19  7.8748453955939137e-19  7.8748453454455204e-19  7.8748453422841247e-19  7.8748453421029062e-19  7.8748453420933623e-19  7.8748453420927922e-19  7.8748453420926458e-19  7.8748453420925178e-19  7.8748453420923926e-19  7.8748453420922712e-19  7.8748453420921595e-19  7.8748453420920825e-19  7.8748453420920690e-19  1.6775152844244533e-03  1.5165775022686809e-03  1.2451577803066045e-03  1.0240286697104379e-03  8.3110883582999582e-04  6.6671870077969757e-04  5.2809630677992517e-04  4.1271209147520580e-04  3.1796942045308351e-04  2.4129303230363458e-04  1.8018400261365230e-04  1.3227034556779479e-04  9.5349103444991340e-05  6.7418667581245205e-05  4.6700487724029441e-05  3.1649990820112454e-05  2.0957193840250786e-05  1.3538111443441724e-05  8.5185678890204600e-06  5.2123739061797906e-06  3.0959906701569339e-06  1.7817650947815000e-06  9.9159929326307725e-07  5.3255185618491920e-07  2.7541646668985815e-07  1.3684888379048334e-07  6.5177495456312025e-08  2.9682752546236343e-08  1.2893554511961582e-08  5.3282697589332849e-09  2.0893165152963890e-09  7.7529791158648671e-10  2.7152541474840980e-10  8.9507187163060338e-11  2.7697719808948214e-11  8.0244541473750693e-12  2.1709063580910130e-12  5.4704090787121208e-13  1.2808227325357416e-13  2.7799350391335782e-14  5.5810647453570983e-15  1.0346617064349037e-15  1.7722619419942342e-16  2.8471282277651025e-17  4.7741512767437890e-18  1.3135596781547343e-18  8.5100192282019079e-19  7.9449178474361150e-19  7.8818997845149058e-19  7.8754926799773606e-19  7.8748994281738092e-19  7.8748494525754257e-19  7.8748456259620432e-19  7.8748453598677226e-19  7.8748453430767113e-19  7.8748453421158427e-19  7.8748453420659053e-19  7.8748453420634391e-19  7.8748453420632157e-19  7.8748453420630934e-19  7.8748453420629836e-19  7.8748453420628844e-19  7.8748453420628045e-19  7.8748453420627458e-19  7.8748453420627217e-19  2.9646419105091326e-03  2.7026853672210962e-03  2.2559256607257261e-03  1.8851721309932226e-03  1.5559457215848164e-03  1.2700037420030901e-03  1.0241116603517818e-03  8.1528680783427021e-04  6.4023677743753641e-04  4.9551979234581487e-04  3.7763099736091472e-04  2.8309218246021201e-04  2.0853477309649675e-04  1.5077302065591636e-04  1.0686437262972448e-04  7.4154828857718146e-05  5.0308066464472740e-05  3.3318203197038570e-05  2.1507163101949524e-05  1.3508599919590274e-05  8.2411173485215008e-06  4.8740179972868886e-06  2.7889669918950442e-06  1.5407702447575884e-06  8.1998755149119794e-07  4.1941385612038051e-07  2.0568006297518163e-07  9.6463371208058652e-08  4.3154200745944086e-08  1.8365845508261317e-08  7.4154183451400226e-09  2.8326091699486284e-09  1.0208009903443934e-09  3.4607722358530764e-10  1.1006860940259839e-10  3.2749967520650254e-11  9.0916223062587980e-12  2.3486525656820454e-12  5.6318772244692607e-13  1.2505729392611659e-13  2.5657531372492976e-14  4.8539209338839153e-15  8.4551439255902711e-16  1.3583798049770568e-16  2.0586233746221664e-17  3.4450190788792640e-18  1.1136344324008083e-18  8.2403622903676132e-19  7.9122098453669329e-19  7.8783257823693117e-19  7.8751404933514902e-19  7.8748681114502916e-19  7.8748469388803076e-19  7.8748454437772499e-19  7.8748453479136247e-19  7.8748453423345677e-19  7.8748453420398128e-19  7.8748453420255484e-19  7.8748453420247886e-19  7.8748453420246239e-19  7.8748453420244881e-19  7.8748453420243630e-19  7.8748453420242455e-19  7.8748453420241376e-19  7.8748453420240384e-19  5.1077434753944960e-03  4.6938896435121044e-03  3.9818167845207903e-03  3.3804998395433770e-03  2.8366446098572152e-03  2.3552339085423876e-03  1.9331103660590791e-03  1.5673602420216684e-03  1.2543645458004766e-03  9.9003759446103577e-04  7.6993695532378734e-04  5.8939637021175758e-04  4.4366008160804461e-04  3.2801373919188808e-04  2.3790569339721246e-04  1.6905304785491036e-04  1.1752775970983767e-04  7.9819421150915536e-05  5.2873018345079877e-05  3.4101794631557038e-05  2.1377154711522329e-05  1.2999133472973139e-05  7.6521317363027752e-06  4.3512555985672828e-06  2.3846267534958658e-06  1.2564900634566742e-06  6.3495177473851652e-07  3.0692267248649401e-07  1.4152849342640952e-07  6.2082168909504883e-08  2.5831336107674414e-08  1.0165021969398841e-08  3.7719089687148717e-09  1.3158688045705258e-09  4.3030805035795345e-10  1.3152308548362137e-10  3.7467636440071395e-11  9.9212446670952215e-12  2.4356374638757488e-12  5.5302098715402137e-13  1.1586958733990289e-13  2.2355839669164671e-14  3.9647282523927149e-15  6.4562463263205648e-16  9.6869308949676088e-17  1.3881163461535045e-17  2.4172766323180892e-18  9.7255153732928738e-19  8.0663498456406994e-19  7.8928861207971695e-19  7.8763912099243100e-19  7.8749657295087934e-19  7.8748538565993679e-19  7.8748458885305927e-19  7.8748453737978140e-19  7.8748453436561784e-19  7.8748453420569333e-19  7.8748453419799327e-19  7.8748453419764102e-19  7.8748453419760953e-19  7.8748453419759114e-19  7.8748453419757332e-19  7.8748453419755580e-19  7.8748453419753943e-19  7.8748453419752267e-19  8.5671002864946208e-03  7.9354296068015386e-03  6.8394705976977388e-03  5.8978355071648853e-03  5.0301989744580425e-03  4.2475158596108446e-03  3.5477184538058766e-03  2.9290762158781804e-03  2.3885886502675040e-03  1.9222939078913548e-03  1.5253742641928435e-03  1.1923171850091194e-03  9.1709496565646649e-04  6.9335827653322637e-04  5.1463428379115348e-04  3.7451955576092081e-04  2.6685791995075214e-04  1.8589421933658135e-04  1.2639652050394927e-04  8.3741665134810765e-05  5.3961934411897020e-05  3.3753718722920629e-05  2.0452091582268834e-05  1.1977701702197965e-05  6.7640964495555582e-06  3.6742652459811595e-06  1.9147981814450010e-06  9.5472788491179886e-07  4.5415114902184219e-07  2.0549355137306093e-07  8.8175063319369919e-08  3.5767321557091900e-08  1.3672472117010890e-08  4.9096878757635266e-09  1.6510088161886148e-09  5.1833346247800628e-10  1.5148093621523770e-10  4.1094356681102918e-11  1.0321445998034603e-11  2.3942551856442061e-12  5.1178953605624633e-13  1.0060201614815468e-13  1.8151333020303570e-14  3.0013888972854376e-15  4.5461359420208026e-16  6.3496524947683774e-17  8.6940617872979511e-18  1.6960969337348415e-18  8.8255937929785637e-19  7.9653479231683534e-19  7.8826763711143202e-19  7.8754608487049020e-19  7.8748892590100983e-19  7.8748481849851166e-19  7.8748455088318874e-19  7.8748453508003577e-19  7.8748453423448762e-19  7.8748453419348515e-19  7.8748453419166341e-19  7.8748453419156866e-19  7.8748453419154266e-19  7.8748453419151955e-19  7.8748453419149663e-19  7.8748453419147381e-19  7.8748453419145204e-19  1.3978196370263520e-02  1.3049079046084495e-02  1.1423593948713222e-02  1.0002731458028742e-02  8.6687843993161380e-03  7.4424594356021076e-03  6.3243627496169675e-03  5.3158274032161067e-03  4.4162184364022533e-03  3.6232976949733884e-03  2.9332636064766339e-03  2.3408912388000625e-03  1.8397171446631402e-03  1.4222689335244669e-03  1.0803295522166588e-03  8.0522396971210324e-04  5.8811359461120394e-04  4.2028242705183586e-04  2.9339888781570089e-04  1.9973866771652690e-04  1.3235682220014716e-04  8.5201515956564595e-05  5.3166897750658297e-05  3.2087965949167393e-05  1.8685270313003035e-05  1.0471193570445411e-05  5.6318171406968302e-06  2.8987130815916688e-06  1.4234764092330282e-06  6.6482719908162164e-07  2.9434524517803070e-07  1.2312243409699408e-07  4.8492679954797220e-08  1.7922854351086317e-08  6.1957218472909748e-09  1.9968328278672889e-09  5.9818469430721734e-10  1.6608576394917872e-10  4.2626787718944067e-11  1.0088569132470452e-11  2.1969062411086481e-12  4.3929751235533885e-13  8.0517514096496684e-14  1.3505746450089289e-14  2.0706941593394100e-15  2.9031965264160947e-16  3.7704777322879764e-17  5.0739779750145719e-18  1.2402927991690773e-18  8.3096659557741558e-19  7.9127743848236710e-19  7.8778487655827726e-19  7.8750611123822843e-19  7.8748593982246166e-19  7.8748461718060467e-19  7.8748453862402064e-19  7.8748453439925988e-19  7.8748453419357326e-19  7.8748453418448567e-19  7.8748453418409634e-19  7.8748453418405484e-19  7.8748453418402585e-19  7.8748453418399725e-19  7.8748453418396846e-19  7.8748453418394092e-19  2.2170276842907222e-02  2.0856593244023457e-02  1.8538983371531349e-02  1.6478022863782724e-02  1.4506214132513656e-02  1.2658708883446914e-02  1.0940847672528788e-02  9.3596760724984993e-03  7.9195765633046974e-03  6.6226784809697986e-03  5.4687322589505967e-03  4.4551362569830930e-03  3.5770365066996636e-03  2.8275113800231857e-03  2.1978364791929851e-03  1.6778208059514345e-03  1.2561994473637142e-03  9.2106278171425978e-04  6.6029806258378811e-04  4.6201686501533181e-04  3.1494184621491553e-04  2.0872893194678153e-04  1.3420639213170473e-04  8.3519901922860220e-05  5.0181766869211382e-05  2.9031850012456110e-05  1.6126009846923550e-05  8.5737148811116921e-06  4.3489679587646186e-06  2.0974472242851221e-06  9.5838335665609370e-07  4.1338235278254396e-07  1.6770363666230865e-07  6.3759620152779393e-08  2.2638397715588172e-08  7.4816865326294790e-09  2.2943283201798450e-09  6.5097628821127329e-10  1.7044650203095406e-10  4.1085906050655163e-11  9.0981504013417449e-12  1.8473159670420107e-12  3.4333698977737015e-13  5.8322987254720040e-14  9.0435747935083345e-15  1.2790158946995221e-15  1.6533586075003773e-16  2.0060510579669399e-17  2.8396607131890372e-18  9.8598662268495302e-19  8.0491521065736292e-19  7.8887323051517508e-19  7.8758486134419086e-19  7.8749110392991276e-19  7.8748492396017350e-19  7.8748455512080344e-19  7.8748453519410591e-19  7.8748453421980645e-19  7.8748453417667063e-19  7.8748453417491081e-19  7.8748453417481365e-19  7.8748453417477667e-19  7.8748453417474239e-19  7.8748453417470782e-19  7.8748453417467084e-19  3.4157583934829469e-02  3.2377550622505517e-02  2.9210368460881993e-02  2.6345049339823290e-02  2.3550534806438636e-02  2.0881492050069408e-02  1.8350107521352903e-02  1.5972234986406784e-02  1.3760628455958412e-02  1.1725412674587385e-02  9.8736685936972410e-03  8.2092210875184726e-03  6.7325120794416680e-03  5.4405925843940516e-03  4.3272430825466853e-03  3.3832271635292144e-03  2.5966746112744839e-03  1.9535804113382941e-03  1.4383960492163872e-03  1.0346800566564337e-03  7.2576732805423438e-04  4.9541254731370031e-04  3.2836319719336133e-04  2.1082272026044877e-04  1.3077454074888903e-04  7.8152137686270852e-05  4.4857459393081899e-05  2.4646907952108867e-05  1.2917584675254297e-05  6.4337363232622588e-06  3.0333353562276695e-06  1.3484610108694223e-06  5.6300632069331140e-07  2.1993184845021860e-07  8.0091149732715604e-08  2.7097331111777873e-08  8.4909427229340768e-09  2.4571936970744832e-09  6.5504137141966594e-10  1.6049292191688815e-10  3.6068225234992526e-11  7.4216629692483997e-12  1.3960544374314319e-12  2.3973228554569936e-13  3.7535957845289292e-14  5.3534757024952068e-15  6.9534718129700099e-16  8.2724879473625905e-17  9.5688453086477432e-18  1.6418765413921465e-18  8.6290847426628062e-19  7.9352246257793245e-19  7.8792265067992944e-19  7.8751333692884391e-19  7.8748624915975299e-19  7.8748462662009616e-19  7.8748453867523198e-19  7.8748453436278007e-19  7.8748453417147283e-19  7.8748453416375958e-19  7.8748453416343949e-19  7.8748453416338845e-19  7.8748453416334656e-19  7.8748453416330487e-19  7.8748453416325835e-19  5.1085200582474566e-02  4.8782770977896704e-02  4.4650100253079403e-02  4.0845800308273436e-02  3.7061685621917591e-02  3.3376322532718758e-02  2.9810084397232723e-02  2.6390389476444648e-02  2.3141717015703629e-02  2.0086226420756005e-02  1.7242951027135443e-02  1.4627227852605701e-02  1.2250183556318727e-02  1.0118339159604070e-02  8.2333643688985905e-03  6.5920121281270770e-03  5.1862559830228349e-03  4.0036416360072959e-03  3.0278494644989783e-03  2.2394477297182323e-03  1.6167981502913649e-03  1.1370582968656953e-03  7.7721103964852848e-04  5.1504262999336591e-04  3.2999095319539534e-04  2.0379680656592631e-04  1.2091436051664726e-04  6.8668839401080979e-05  3.7182608946597754e-05  1.9117176733147993e-05  9.2931898238661651e-06  4.2531524949634882e-06  1.8249523682093081e-06  7.3123751400818256e-07  2.7259483667968745e-07  9.4221252223667462e-08  3.0103375713522534e-08  8.8659033060158848e-09  2.4011305600540455e-09  5.9671078113181940e-10  1.3581633213348421e-10  2.8266110851974925e-11  5.3713143613563087e-12  9.3077988217176549e-13  1.4692111890926577e-13  2.1104603854474200e-14  2.7569697662642695e-15  3.2781896184970045e-16  3.6017279607808003e-17  4.2310380760487497e-18  1.0927279270079650e-18  8.1201022882282831e-19  7.8926998871208725e-19  7.8760225881566883e-19  7.8749156222312747e-19  7.8748491393059374e-19  7.8748455272143379e-19  7.8748453497129295e-19  7.8748453418243484e-19  7.8748453415068733e-19  7.8748453414948507e-19  7.8748453414939696e-19  7.8748453414934524e-19  7.8748453414929450e-19  7.8748453414924096e-19  7.4113040724909901e-02  7.1285084742654464e-02  6.6162343149331684e-02  6.1361913124766902e-02  5.6487815848094147e-02  5.1644672223091638e-02  4.6860461691408027e-02  4.2175313003185229e-02  3.7627486008068423e-02  3.3254357805603020e-02  2.9091210334971345e-02  2.5170265810954402e-02  2.1519683321657809e-02  1.8162607886576174e-02  1.5116322265862040e-02  1.2391562421356474e-02  9.9920571090105510e-03  7.9143471795474554e-03  6.1479289710312116e-03  4.6757484582826110e-03  3.4750485205948312e-03  2.5185408065629775e-03  1.7758368705497814e-03  1.2150340222204675e-03  8.0431847629240389e-04  5.1343505133308309e-04  3.1488923212944837e-04  1.8479221380302482e-04  1.0331685090720818e-04  5.4782639365046378e-05  2.7421615180142732e-05  1.2898700736591695e-05  5.6768838972221862e-06  2.3281878918736575e-06  8.8644888236021216e-07  3.1229403532189901e-07  1.0149818468849875e-07  3.0353147501349886e-08  8.3331596356473457e-09  2.0961099815864659e-09  4.8224444840199413e-10  1.0132510066904771e-10  1.9417572410704267e-11  3.3900321419617111e-12  5.3865147375032152e-13  7.7826171702731667e-14  1.0217388745850929e-14  1.2185481938571299e-15  1.3249810605516263e-16  1.3706985673934805e-17  1.9362362529795848e-18  8.8003433849640831e-19  7.9423803720926747e-19  7.8793074746380042e-19  7.8751122053996132e-19  7.8748597845263709e-19  7.8748460485707720e-19  7.8748453726527755e-19  7.8748453425793389e-19  7.8748453413691057e-19  7.8748453413245214e-19  7.8748453413224761e-19  7.8748453413218290e-19  7.8748453413212223e-19  7.8748453413206137e-19  1.0422948463300953e-01  1.0095622805733595e-01  9.4967515395863067e-02  8.9249399842712504e-02  8.3314296152591616e-02  7.7291064536158346e-02  7.1211593543413984e-02  6.5126723296896366e-02  5.9087507204179372e-02  5.3146951672348987e-02  4.7358540161588747e-02  4.1775011209700771e-02  3.6446933067250262e-02  3.1421182534944761e-02  2.6739378598147436e-02  2.2436347984564186e-02  1.8538713722863857e-02  1.5063709707286186e-02  1.2018331151540315e-02  9.3989310942458187e-03  7.1913628439457065e-03  5.3717392731754037e-03  3.9078219340615275e-03  2.7609638490351299e-03  1.8884288175614354e-03  1.2458387281285123e-03  7.8949760838900943e-04  4.7840658452720638e-04  2.7586854478621193e-04  1.5062805397078076e-04  7.7492551664431675e-05  3.7384857585202782e-05  1.6837479474931433e-05  7.0507483154769076e-06  2.7351755460783396e-06  9.7977817723864482e-07  3.2317704160718591e-07  9.7918086936134101e-08  2.7194331814860308e-08  6.9102784588462150e-09  1.6040966051237141e-09  3.3969633407589221e-10  6.5548307087092652e-11  1.1513110165241555e-11  1.8390354272782812e-12  2.6693604017016053e-13  3.5183848151069712e-14  4.2090298544568903e-15  4.5731358892921320e-16  4.5684099739901