<?xml version="1.0"?>
<VTKFile type="UnstructuredGrid"  version="0.1"  >
<UnstructuredGrid>
<Piece  NumberOfPoints="4225" NumberOfCells="8192">
<Points>
<DataArray  type="Float64"  NumberOfComponents="3"  format="ascii">0 0 0  0.015625 0 0  0.03125 0 0  0.046875 0 0  0.0625 0 0  0.078125 0 0  0.09375 0 0  0.109375 0 0  0.125 0 0  0.140625 0 0  0.15625 0 0  0.171875 0 0  0.1875 0 0  0.203125 0 0  0.21875 0 0  0.234375 0 0  0.25 0 0  0.265625 0 0  0.28125 0 0  0.296875 0 0  0.3125 0 0  0.328125 0 0  0.34375 0 0  0.359375 0 0  0.375 0 0  0.390625 0 0  0.40625 0 0  0.421875 0 0  0.4375 0 0  0.453125 0 0  0.46875 0 0  0.484375 0 0  0.5 0 0  0.515625 0 0  0.53125 0 0  0.546875 0 0  0.5625 0 0  0.578125 0 0  0.59375 0 0  0.609375 0 0  0.625 0 0  0.640625 0 0  0.65625 0 0  0.671875 0 0  0.6875 0 0  0.703125 0 0  0.71875 0 0  0.734375 0 0  0.75 0 0  0.765625 0 0  0.78125 0 0  0.796875 0 0  0.8125 0 0  0.828125 0 0  0.84375 0 0  0.859375 0 0  0.875 0 0  0.890625 0 0  0.90625 0 0  0.921875 0 0  0.9375 0 0  0.953125 0 0  0.96875 0 0  0.984375 0 0  1 0 0  0 0.015625 0  0.015625 0.015625 0  0.03125 0.015625 0  0.046875 0.015625 0  0.0625 0.015625 0  0.078125 0.015625 0  0.09375 0.015625 0  0.109375 0.015625 0  0.125 0.015625 0  0.140625 0.015625 0  0.15625 0.015625 0  0.171875 0.015625 0  0.1875 0.015625 0  0.203125 0.015625 0  0.21875 0.015625 0  0.234375 0.015625 0  0.25 0.015625 0  0.265625 0.015625 0  0.28125 0.015625 0  0.296875 0.015625 0  0.3125 0.015625 0  0.328125 0.015625 0  0.34375 0.015625 0  0.359375 0.015625 0  0.375 0.015625 0  0.390625 0.015625 0  0.40625 0.015625 0  0.421875 0.015625 0  0.4375 0.015625 0  0.453125 0.015625 0  0.46875 0.015625 0  0.484375 0.015625 0  0.5 0.015625 0  0.515625 0.015625 0  0.53125 0.015625 0  0.546875 0.015625 0  0.5625 0.015625 0  0.578125 0.015625 0  0.59375 0.015625 0  0.609375 0.015625 0  0.625 0.015625 0  0.640625 0.015625 0  0.65625 0.015625 0  0.671875 0.015625 0  0.6875 0.015625 0  0.703125 0.015625 0  0.71875 0.015625 0  0.734375 0.015625 0  0.75 0.015625 0  0.765625 0.015625 0  0.78125 0.015625 0  0.796875 0.015625 0  0.8125 0.015625 0  0.828125 0.015625 0  0.84375 0.015625 0  0.859375 0.015625 0  0.875 0.015625 0  0.890625 0.015625 0  0.90625 0.015625 0  0.921875 0.015625 0  0.9375 0.015625 0  0.953125 0.015625 0  0.96875 0.015625 0  0.984375 0.015625 0  1 0.015625 0  0 0.03125 0  0.015625 0.03125 0  0.03125 0.03125 0  0.046875 0.03125 0  0.0625 0.03125 0  0.078125 0.03125 0  0.09375 0.03125 0  0.109375 0.03125 0  0.125 0.03125 0  0.140625 0.03125 0  0.15625 0.03125 0  0.171875 0.03125 0  0.1875 0.03125 0  0.203125 0.03125 0  0.21875 0.03125 0  0.234375 0.03125 0  0.25 0.03125 0  0.265625 0.03125 0  0.28125 0.03125 0  0.296875 0.03125 0  0.3125 0.03125 0  0.328125 0.03125 0  0.34375 0.03125 0  0.359375 0.03125 0  0.375 0.03125 0  0.390625 0.03125 0  0.40625 0.03125 0  0.421875 0.03125 0  0.4375 0.03125 0  0.453125 0.03125 0  0.46875 0.03125 0  0.484375 0.03125 0  0.5 0.03125 0  0.515625 0.03125 0  0.53125 0.03125 0  0.546875 0.03125 0  0.5625 0.03125 0  0.578125 0.03125 0  0.59375 0.03125 0  0.609375 0.03125 0  0.625 0.03125 0  0.640625 0.03125 0  0.65625 0.03125 0  0.671875 0.03125 0  0.6875 0.03125 0  0.703125 0.03125 0  0.71875 0.03125 0  0.734375 0.03125 0  0.75 0.03125 0  0.765625 0.03125 0  0.78125 0.03125 0  0.796875 0.03125 0  0.8125 0.03125 0  0.828125 0.03125 0  0.84375 0.03125 0  0.859375 0.03125 0  0.875 0.03125 0  0.890625 0.03125 0  0.90625 0.03125 0  0.921875 0.03125 0  0.9375 0.03125 0  0.953125 0.03125 0  0.96875 0.03125 0  0.984375 0.03125 0  1 0.03125 0  0 0.046875 0  0.015625 0.046875 0  0.03125 0.046875 0  0.046875 0.046875 0  0.0625 0.046875 0  0.078125 0.046875 0  0.09375 0.046875 0  0.109375 0.046875 0  0.125 0.046875 0  0.140625 0.046875 0  0.15625 0.046875 0  0.171875 0.046875 0  0.1875 0.046875 0  0.203125 0.046875 0  0.21875 0.046875 0  0.234375 0.046875 0  0.25 0.046875 0  0.265625 0.046875 0  0.28125 0.046875 0  0.296875 0.046875 0  0.3125 0.046875 0  0.328125 0.046875 0  0.34375 0.046875 0  0.359375 0.046875 0  0.375 0.046875 0  0.390625 0.046875 0  0.40625 0.046875 0  0.421875 0.046875 0  0.4375 0.046875 0  0.453125 0.046875 0  0.46875 0.046875 0  0.484375 0.046875 0  0.5 0.046875 0  0.515625 0.046875 0  0.53125 0.046875 0  0.546875 0.046875 0  0.5625 0.046875 0  0.578125 0.046875 0  0.59375 0.046875 0  0.609375 0.046875 0  0.625 0.046875 0  0.640625 0.046875 0  0.65625 0.046875 0  0.671875 0.046875 0  0.6875 0.046875 0  0.703125 0.046875 0  0.71875 0.046875 0  0.734375 0.046875 0  0.75 0.046875 0  0.765625 0.046875 0  0.78125 0.046875 0  0.796875 0.046875 0  0.8125 0.046875 0  0.828125 0.046875 0  0.84375 0.046875 0  0.859375 0.046875 0  0.875 0.046875 0  0.890625 0.046875 0  0.90625 0.046875 0  0.921875 0.046875 0  0.9375 0.046875 0  0.953125 0.046875 0  0.96875 0.046875 0  0.984375 0.046875 0  1 0.046875 0  0 0.0625 0  0.015625 0.0625 0  0.03125 0.0625 0  0.046875 0.0625 0  0.0625 0.0625 0  0.078125 0.0625 0  0.09375 0.0625 0  0.109375 0.0625 0  0.125 0.0625 0  0.140625 0.0625 0  0.15625 0.0625 0  0.171875 0.0625 0  0.1875 0.0625 0  0.203125 0.0625 0  0.21875 0.0625 0  0.234375 0.0625 0  0.25 0.0625 0  0.265625 0.0625 0  0.28125 0.0625 0  0.296875 0.0625 0  0.3125 0.0625 0  0.328125 0.0625 0  0.34375 0.0625 0  0.359375 0.0625 0  0.375 0.0625 0  0.390625 0.0625 0  0.40625 0.0625 0  0.421875 0.0625 0  0.4375 0.0625 0  0.453125 0.0625 0  0.46875 0.0625 0  0.484375 0.0625 0  0.5 0.0625 0  0.515625 0.0625 0  0.53125 0.0625 0  0.546875 0.0625 0  0.5625 0.0625 0  0.578125 0.0625 0  0.59375 0.0625 0  0.609375 0.0625 0  0.625 0.0625 0  0.640625 0.0625 0  0.65625 0.0625 0  0.671875 0.0625 0  0.6875 0.0625 0  0.703125 0.0625 0  0.71875 0.0625 0  0.734375 0.0625 0  0.75 0.0625 0  0.765625 0.0625 0  0.78125 0.0625 0  0.796875 0.0625 0  0.8125 0.0625 0  0.828125 0.0625 0  0.84375 0.0625 0  0.859375 0.0625 0  0.875 0.0625 0  0.890625 0.0625 0  0.90625 0.0625 0  0.921875 0.0625 0  0.9375 0.0625 0  0.953125 0.0625 0  0.96875 0.0625 0  0.984375 0.0625 0  1 0.0625 0  0 0.078125 0  0.015625 0.078125 0  0.03125 0.078125 0  0.046875 0.078125 0  0.0625 0.078125 0  0.078125 0.078125 0  0.09375 0.078125 0  0.109375 0.078125 0  0.125 0.078125 0  0.140625 0.078125 0  0.15625 0.078125 0  0.171875 0.078125 0  0.1875 0.078125 0  0.203125 0.078125 0  0.21875 0.078125 0  0.234375 0.078125 0  0.25 0.078125 0  0.265625 0.078125 0  0.28125 0.078125 0  0.296875 0.078125 0  0.3125 0.078125 0  0.328125 0.078125 0  0.34375 0.078125 0  0.359375 0.078125 0  0.375 0.078125 0  0.390625 0.078125 0  0.40625 0.078125 0  0.421875 0.078125 0  0.4375 0.078125 0  0.453125 0.078125 0  0.46875 0.078125 0  0.484375 0.078125 0  0.5 0.078125 0  0.515625 0.078125 0  0.53125 0.078125 0  0.546875 0.078125 0  0.5625 0.078125 0  0.578125 0.078125 0  0.59375 0.078125 0  0.609375 0.078125 0  0.625 0.078125 0  0.640625 0.078125 0  0.65625 0.078125 0  0.671875 0.078125 0  0.6875 0.078125 0  0.703125 0.078125 0  0.71875 0.078125 0  0.734375 0.078125 0  0.75 0.078125 0  0.765625 0.078125 0  0.78125 0.078125 0  0.796875 0.078125 0  0.8125 0.078125 0  0.828125 0.078125 0  0.84375 0.078125 0  0.859375 0.078125 0  0.875 0.078125 0  0.890625 0.078125 0  0.90625 0.078125 0  0.921875 0.078125 0  0.9375 0.078125 0  0.953125 0.078125 0  0.96875 0.078125 0  0.984375 0.078125 0  1 0.078125 0  0 0.09375 0  0.015625 0.09375 0  0.03125 0.09375 0  0.046875 0.09375 0  0.0625 0.09375 0  0.078125 0.09375 0  0.09375 0.09375 0  0.109375 0.09375 0  0.125 0.09375 0  0.140625 0.09375 0  0.15625 0.09375 0  0.171875 0.09375 0  0.1875 0.09375 0  0.203125 0.09375 0  0.21875 0.09375 0  0.234375 0.09375 0  0.25 0.09375 0  0.265625 0.09375 0  0.28125 0.09375 0  0.296875 0.09375 0  0.3125 0.09375 0  0.328125 0.09375 0  0.34375 0.09375 0  0.359375 0.09375 0  0.375 0.09375 0  0.390625 0.09375 0  0.40625 0.09375 0  0.421875 0.09375 0  0.4375 0.09375 0  0.453125 0.09375 0  0.46875 0.09375 0  0.484375 0.09375 0  0.5 0.09375 0  0.515625 0.09375 0  0.53125 0.09375 0  0.546875 0.09375 0  0.5625 0.09375 0  0.578125 0.09375 0  0.59375 0.09375 0  0.609375 0.09375 0  0.625 0.09375 0  0.640625 0.09375 0  0.65625 0.09375 0  0.671875 0.09375 0  0.6875 0.09375 0  0.703125 0.09375 0  0.71875 0.09375 0  0.734375 0.09375 0  0.75 0.09375 0  0.765625 0.09375 0  0.78125 0.09375 0  0.796875 0.09375 0  0.8125 0.09375 0  0.828125 0.09375 0  0.84375 0.09375 0  0.859375 0.09375 0  0.875 0.09375 0  0.890625 0.09375 0  0.90625 0.09375 0  0.921875 0.09375 0  0.9375 0.09375 0  0.953125 0.09375 0  0.96875 0.09375 0  0.984375 0.09375 0  1 0.09375 0  0 0.109375 0  0.015625 0.109375 0  0.03125 0.109375 0  0.046875 0.109375 0  0.0625 0.109375 0  0.078125 0.109375 0  0.09375 0.109375 0  0.109375 0.109375 0  0.125 0.109375 0  0.140625 0.109375 0  0.15625 0.109375 0  0.171875 0.109375 0  0.1875 0.109375 0  0.203125 0.109375 0  0.21875 0.109375 0  0.234375 0.109375 0  0.25 0.109375 0  0.265625 0.109375 0  0.28125 0.109375 0  0.296875 0.109375 0  0.3125 0.109375 0  0.328125 0.109375 0  0.34375 0.109375 0  0.359375 0.109375 0  0.375 0.109375 0  0.390625 0.109375 0  0.40625 0.109375 0  0.421875 0.109375 0  0.4375 0.109375 0  0.453125 0.109375 0  0.46875 0.109375 0  0.484375 0.109375 0  0.5 0.109375 0  0.515625 0.109375 0  0.53125 0.109375 0  0.546875 0.109375 0  0.5625 0.109375 0  0.578125 0.109375 0  0.59375 0.109375 0  0.609375 0.109375 0  0.625 0.109375 0  0.640625 0.109375 0  0.65625 0.109375 0  0.671875 0.109375 0  0.6875 0.109375 0  0.703125 0.109375 0  0.71875 0.109375 0  0.734375 0.109375 0  0.75 0.109375 0  0.765625 0.109375 0  0.78125 0.109375 0  0.796875 0.109375 0  0.8125 0.109375 0  0.828125 0.109375 0  0.84375 0.109375 0  0.859375 0.109375 0  0.875 0.109375 0  0.890625 0.109375 0  0.90625 0.109375 0  0.921875 0.109375 0  0.9375 0.109375 0  0.953125 0.109375 0  0.96875 0.109375 0  0.984375 0.109375 0  1 0.109375 0  0 0.125 0  0.015625 0.125 0  0.03125 0.125 0  0.046875 0.125 0  0.0625 0.125 0  0.078125 0.125 0  0.09375 0.125 0  0.109375 0.125 0  0.125 0.12
[...]
<PointData  Scalars="f_9634"> 
<DataArray  type="Float64"  Name="f_9634"  format="ascii">1.6200935554564391e-16  1.6200939895317219e-16  1.6200956720611115e-16  1.6200965804891735e-16  1.6200901787665470e-16  1.6200829280785329e-16  1.6201084868089858e-16  1.6201574795024847e-16  1.6200902062287118e-16  1.6198621649095420e-16  1.6199181659021657e-16  1.6206146974384826e-16  1.6207585346097031e-16  1.6186044609234812e-16  1.6165614284288981e-16  1.6231557195763750e-16  1.6505363459133002e-16  1.7276983285866182e-16  1.9527016828865618e-16  2.5708175301699711e-16  4.0391615081699382e-16  7.0613141143791627e-16  1.2589732811147120e-15  2.1747610866247025e-15  3.5597445432075571e-15  5.4781726549569439e-15  7.9211002172653064e-15  1.0800154201076640e-14  1.3972077916283463e-14  1.7281382062220508e-14  2.0600558490277339e-14  2.3852970286529637e-14  2.7015457121337714e-14  3.0107229205023420e-14  3.3174648518432913e-14  3.6279056999251274e-14  3.9490478889639552e-14  4.2886826523931605e-14  4.6557194408895334e-14  5.0608377853389475e-14  5.5174951966068427e-14  6.0434540494491909e-14  6.6631237092104875e-14  7.4111739160940709e-14  8.3380916641176608e-14  9.5186539904822292e-14  1.1064735165220830e-13  1.3144339079652301e-13  1.6010028852575892e-13  2.0039150795558541e-13  2.5795949512382720e-13  3.4108061916567684e-13  4.6207627742801840e-13  6.3845594516487120e-13  8.9641598398827089e-13  1.2715544622617792e-12  1.8178480983110512e-12  2.6053668562903887e-12  3.7406705604513616e-12  5.3597028075644022e-12  7.6599156313691597e-12  1.0904618546273709e-11  1.5453219611556453e-11  2.3019369433875663e-11  2.6654311844593521e-11  1.6200940898842116e-16  1.6200945805652586e-16  1.6200954821612054e-16  1.6200942554513619e-16  1.6200899058523320e-16  1.6200948019597675e-16  1.6201197648278320e-16  1.6201153733924872e-16  1.6200149738653384e-16  1.6199887271446150e-16  1.6204256295483962e-16  1.6212718384986619e-16  1.6226385629338508e-16  1.6298021070948372e-16  1.6624562747998518e-16  1.7704253285106189e-16  2.0772721727390064e-16  2.8864650786368485e-16  4.8548532211757500e-16  9.1822595571193205e-16  1.7731562641290099e-15  3.2965328181911102e-15  5.7543107376048582e-15  9.3484233477564709e-15  1.4108947563768434e-14  1.9816932515861217e-14  2.6016264855214937e-14  3.2128893582512192e-14  3.7625850844408611e-14  4.2173838170269765e-14  4.5695422402449193e-14  4.8332726803271086e-14  5.0352506039659759e-14  5.2046965563564459e-14  5.3668555585968608e-14  5.5407837456829469e-14  5.7402214453120561e-14  5.9757729033276502e-14  6.2571572256549595e-14  6.5951045577712395e-14  7.0030365517552881e-14  7.4989225546331450e-14  8.1077919924136347e-14  8.8654642652334531e-14  9.8242170958848661e-14  1.1061387295711961e-13  1.2692329147231324e-13  1.4889644805084506e-13  1.7911815443107080e-13  2.2143787875603140e-13  2.8159275797404729e-13  3.6797893435652400e-13  4.9306911349516889e-13  6.7454066441573046e-13  9.3887282657737328e-13  1.3217842330247708e-12  1.8779738421464845e-12  2.6771150939198261e-12  3.8278052637211291e-12  5.4640177108450897e-12  7.7882848564585907e-12  1.1061821498468952e-11  1.5640551454885785e-11  2.2755388795288061e-11  2.7164629459952991e-11  1.6200956327347671e-16  1.6200956239555834e-16  1.6200942920435649e-16  1.6200912715791294e-16  1.6200970167493432e-16  1.6201185143932847e-16  1.6201046513080560e-16  1.6199989426214471e-16  1.6200347963525530e-16  1.6207456500612149e-16  1.6223782774507004e-16  1.6271849452374937e-16  1.6523947728826793e-16  1.7631075102638689e-16  2.1547774204675821e-16  3.3874761690539744e-16  6.9617310204578529e-16  1.6417121830017183e-15  3.8973960423172605e-15  8.7408777651040963e-15  1.8122233270580074e-14  3.4529888482882422e-14  6.0410544620961272e-14  9.7133609894587968e-14  1.4385323434237952e-13  1.9690127968837717e-13  2.5024637944201300e-13  2.9703909343206744e-13  3.3163332172494732e-13  3.5116429380094047e-13  3.5600592438230301e-13  3.4905876675520228e-13  3.3439595820168096e-13  3.1596644834736486e-13  2.9681328746576551e-13  2.7887538345111214e-13  2.6317479724868225e-13  2.5013775291314957e-13  2.3988188514173944e-13  2.3241104396514679e-13  2.2772773604610859e-13  2.2589600444388409e-13  2.2708471581662272e-13  2.3161209752947279e-13  2.4000611475125568e-13  2.5309369286679759e-13  2.7213422143670261e-13  2.9901678585092799e-13  3.3655375432690152e-13  3.8889109082558438e-13  4.6215557233204737e-13  5.6518785784527639e-13  7.1113170510498897e-13  9.1812707296419216e-13  1.2141082757483345e-12  1.6344216454744859e-12  2.2378707486076249e-12  3.0899898500585313e-12  4.3107269208781958e-12  6.0208577747431642e-12  8.4462856918590745e-12  1.1827864634841249e-11  1.6529762460228942e-11  2.3612003899182118e-11  2.8202117963116545e-11  1.6200968079634939e-16  1.6200954477243449e-16  1.6200924602536153e-16  1.6200965995768344e-16  1.6201176948346275e-16  1.6201092185499969e-16  1.6199963461710115e-16  1.6200305828810610e-16  1.6210404193337950e-16  1.6242052634132459e-16  1.6361806911562358e-16  1.6996726900983343e-16  1.9951826010929054e-16  3.1536767116376006e-16  7.2160823677229320e-16  2.0236496193286085e-15  5.8159943827950486e-15  1.5786217851485251e-14  3.9420438643948123e-14  8.9987595283584907e-14  1.8766024851601940e-13  3.5778582200665444e-13  6.2448836474655849e-13  9.9986029578278011e-13  1.4724916350723982e-12  2.0016956802733897e-12  2.5228389515433562e-12  2.9639915929799172e-12  3.2674334867029516e-12  3.4061072534944511e-12  3.3877607367336690e-12  3.2464931526194415e-12  3.0276982200720367e-12  2.7740715260572687e-12  2.5174987633829380e-12  2.2773331774187449e-12  2.0627497839134024e-12  1.8763932592477671e-12  1.7175252673570708e-12  1.5840751175302782e-12  1.4737288455940263e-12  1.3844147589864400e-12  1.3144903811872916e-12  1.2628152672714007e-12  1.2288019593843722e-12  1.2124888713557324e-12  1.2146608926920969e-12  1.2370397883154808e-12  1.2825793827088409e-12  1.3558767941825987e-12  1.4638596532292010e-12  1.6164457410633386e-12  1.8284696147020121e-12  2.1194877900236132e-12  2.5211368586301471e-12  3.0684904548404673e-12  3.8307154055497880e-12  4.8635102103511987e-12  6.3171373639512670e-12  8.2753729116818846e-12  1.1033940310121793e-11  1.4759880928132611e-11  1.9900784632242807e-11  2.7397522073198219e-11  3.2561028616997167e-11  1.6200946925520439e-16  1.6200936244236923e-16  1.6200964147763162e-16  1.6201137212919822e-16  1.6201118758824095e-16  1.6200132664711887e-16  1.6200452120403970e-16  1.6212754115870109e-16  1.6263107482403311e-16  1.6494711062361180e-16  1.7791478501746734e-16  2.4295442951449361e-16  5.2499577815423166e-16  1.6227586405161174e-15  5.5110644096361955e-15  1.8000390899840333e-14  5.4231405872750424e-14  1.4909270184036243e-13  3.7336149533777817e-13  8.5206659637647735e-13  1.7737644860706928e-12  3.3722936295427491e-12  5.8649964251929909e-12  9.3508073827180720e-12  1.3703873096561486e-11  1.8522982212513075e-11  2.3187819429080114e-11  2.7022268808989752e-11  2.9500108656890367e-11  3.0396891263217189e-11  2.9820548774674270e-11  2.8122265563639193e-11  2.5748408264642420e-11  2.3107446661638023e-11  2.0496106427510077e-11  1.8087180569668699e-11  1.5955278339727734e-11  1.4113454323971616e-11  1.2543864070188502e-11  1.1217252886469944e-11  1.0102959490515946e-11  9.1730554971701573e-12  8.4035885109742457e-12  7.7746639698477208e-12  7.2701778701374725e-12  6.8775199048788990e-12  6.5873590558890621e-12  6.3935527809077182e-12  6.2932168394642635e-12  6.2869499250252132e-12  6.3794281153323550e-12  6.5798177851543436e-12  6.9041856402943791e-12  7.3735920304523265e-12  8.0263241214999149e-12  8.8964719706521378e-12  1.0075770950036342e-11  1.1596584320264986e-11  1.3683183304560296e-11  1.6320417625438476e-11  1.9998780205781578e-11  2.4647691152742841e-11  3.1038954415061952e-11  3.9809819351492728e-11  4.6594946679825569e-11  1.6200921660393562e-16  1.6200957316327257e-16  1.6201089499399115e-16  1.6201116087418662e-16  1.6200378438824394e-16  1.6200692898148359e-16  1.6213756903321869e-16  1.6280106812708161e-16  1.6637450681331145e-16  1.8797201428550524e-16  3.0591319074934764e-16  8.7102942208581063e-16  3.3064238117007769e-15  1.2835233415441971e-14  4.6607824694865645e-14  1.5475293883656749e-13  4.6747468940770216e-13  1.2842429236040995e-12  3.2105662022618870e-12  7.3100257220950722e-12  1.5173754389021052e-11  2.8751748842912814e-11  4.9813824645190626e-11  7.9076473035035881e-11  1.1531050514191793e-10  1.5495172805086624e-10  1.9264212000824764e-10  2.2267481465164593e-10  2.4075793531882923e-10  2.4526472562318417e-10  2.3741503362979388e-10  2.2043937147631282e-10  1.9827424514528098e-10  1.7442654657523708e-10  1.5137147680503170e-10  1.3048499826842740e-10  1.1229373174722565e-10  9.6805876343574622e-11  8.3780649671460916e-11  7.2895840207285404e-11  6.3831332650981727e-11  5.6301613442820364e-11  5.0063499342168459e-11  4.4914147832154850e-11  4.0686253127090768e-11  3.7243033277227991e-11  3.4473802988102309e-11  3.2290296504995168e-11  3.0623743270176293e-11  2.9422603884487708e-11  2.8651195880456725e-11  2.8288224511432094e-11  2.8328779244323908e-11  2.8778424270992512e-11  2.9673691514516775e-11  3.1034961539224097e-11  3.2992113374254190e-11  3.5516137705308283e-11  3.8998162203258975e-11  4.3163531275180248e-11  4.9015570213895017e-11  5.5770715431452507e-11  6.5252396013538046e-11  7.6974574420330288e-11  8.7734294945089781e-11  1.6201010819426536e-16  1.6201077439681477e-16  1.6201113498822160e-16  1.6200636088807183e-16  1.6200912140426286e-16  1.6212819203730962e-16  1.6285218462843843e-16  1.6731806511725782e-16  1.9674460438897546e-16  3.7268278723182463e-16  1.3037178193037961e-15  5.7406479241363009e-15  2.4912425158318310e-14  9.9909908736883546e-14  3.6503455285309771e-13  1.2116994854247600e-12  3.6542828515022001e-12  1.0018594248360590e-11  2.4986278236975070e-11  5.6732898242795617e-11  1.1739468723773731e-10  2.2166539898994602e-10  3.8253531044496258e-10  6.0453067195768646e-10  8.7698519420643682e-10  1.1714122616959133e-09  1.4461640264968296e-09  1.6579273856502249e-09  1.7753183649702214e-09  1.7881114694852470e-09  1.7080057004321974e-09  1.5616091124321138e-09  1.3800897669185284e-09  1.1904545479813399e-09  1.0111582537286305e-09  8.5189154986497199e-10  7.1575629464330241e-10  6.0196274904214564e-10  5.0796360427847569e-10  4.3074764804556305e-10  3.6746104397143699e-10  3.1562884659537792e-10  2.7318714164092837e-10  2.3844437322665510e-10  2.1002521325832501e-10  1.8681645491638908e-10  1.6792029543987306e-10  1.5261552583204356e-10  1.4032583525946777e-10  1.3059413966316574e-10  1.2306237398826303e-10  1.1745444094596018e-10  1.1356745828836097e-10  1.1125108361224567e-10  1.1043658568230286e-10  1.1103605807720182e-10  1.1319163435007099e-10  1.1668561207903898e-10  1.2224318779167026e-10  1.2891457832530565e-10  1.3898132679399087e-10  1.4963290082189687e-10  1.6582398032615070e-10  1.8317329834037312e-10  2.0288922278493387e-10  1.6201232371775415e-16  1.6201198379495285e-16  1.6200900356474551e-16  1.6201085623673177e-16  1.6210276785054403e-16  1.6275565534138998e-16  1.6730640399620419e-16  2.0016347814786395e-16  4.1592096930370165e-16  1.6765992743326239e-15  8.3156493000637402e-15  3.9992025335870067e-14  1.7677450599891627e-13  7.1062095470632235e-13  2.5932313821548185e-12  8.5918251074960817e-12  2.5857092749838524e-11  7.0722819669335767e-11  1.7591516951715334e-10  3.9825289837210989e-10  8.2140865056168008e-10  1.5453795543089083e-09  2.6560610856792718e-09  4.1780541174777152e-09  6.0290479146479154e-09  8.0042675334915001e-09  9.8122746827760188e-09  1.1157280773088171e-08  1.1833475746132335e-08  1.1786153631451193e-08  1.1112438750063052e-08  1.0008443622461312e-08  8.6953819032785903e-09  7.3594257844925994e-09  6.1232330001850944e-09  5.0468545342897321e-09  4.1446858809840707e-09  3.4052103971210415e-09  2.8061388643573909e-09  2.3233077627541362e-09  1.9347450341368090e-09  1.6219366314477294e-09  1.3698133556716874e-09  1.1662954890353792e-09  1.0017621128522951e-09  8.6857191956534337e-10  7.6066422483013313e-10  6.7323645111533492e-10  6.0248652763637824e-10  5.4540828935973037e-10  4.9963015868249138e-10  4.6328638591094737e-10  4.3492315492615260e-10  4.1340108136581586e-10  3.9789890405044771e-10  3.8768333610417633e-10  3.8257367252017718e-10  3.8167895250900630e-10  3.8623885450225241e-10  3.9353333017955804e-10  4.0884755013532063e-10  4.2385134460739680e-10  4.5227163655526817e-10  4.7732969323875311e-10  5.1566805419009532e-10  1.6201313950810696e-16  1.6201160718204490e-16  1.6201251227380403e-16  1.6207205118630862e-16  1.6255801845524309e-16  1.6635157395928196e-16  1.9644616106463713e-16  4.1389304772323043e-16  1.8166256653341990e-15  9.9765928524463399e-15  5.2962820628777128e-14  2.5787055422245265e-13  1.1408109702268916e-12  4.5790369172527371e-12  1.6677734524342431e-11  5.5140581197486582e-11  1.6556385424640199e-10  4.5169129059717899e-10  1.1204054794387114e-09  2.5287442720011901e-09  5.1980841656353415e-09  9.7430254256344759e-09  1.6675418594824675e-08  2.6107365674706183e-08  3.7472833967847934e-08  4.9447562943349176e-08  6.0195084083673492e-08  6.7897442384492505e-08  7.1344328776845500e-08  7.0295553808150498e-08  6.5455396024959963e-08  5.8115795970899737e-08  4.9682582353505635e-08  4.1303901578998532e-08  3.3706637633472422e-08  2.7217981800835714e-08  2.1883000579267011e-08  1.7593809403253464e-08  1.4185409233304011e-08  1.1490045335470468e-08  9.3605381438450114e-09  7.6761829048455520e-09  6.3410399351102682e-09  5.2798862987715145e-09  4.4340540368851904e-09  3.7578613982199546e-09  3.2157414062292841e-09  2.7799860525937932e-09  2.4289903911518198e-09  2.1458910202678278e-09  1.9175132075055098e-09  1.7335547625481654e-09  1.5859669006059051e-09  1.4684367500231678e-09  1.3761253068218425e-09  1.3050407302691166e-09  1.2527816053246931e-09  1.2158533966591794e-09  1.1956335745906772e-09  1.1846368327223898e-09  1.1947090172714309e-09  1.2029958553280842e-09  1.2465621868244478e-09  1.2717677380922778e-09  1.3449954001779627e-09  1.6201026078332929e-16  1.6201250887622596e-16  1.6204567940024239e-16  1.6234456866212250e-16  1.6493654999623327e-16  1.8756056658989318e-16  3.6764447335712802e-16  1.6501474933820511e-15  9.8892180696045722e-15  5.7807800028937804e-14  3.0996772018523872e-13  1.5095591827386432e-12  6.6674808960036129e-12  2.6710564448817738e-11  9.7084042164264056e-11  3.2026299210261921e-10  9.5926192242237829e-10  2.6101038196435352e-09  6.4555831707223586e-09  1.4524235703613016e-08  2.9752495001784258e-08  5.5552909635442471e-08  9.4675787477380584e-08  1.4752351151034444e-07  2.1062065459529090e-07  2.7626148348435148e-07  3.3402353748795698e-07  3.7384757880079848e-07  3.8934701320947166e-07  3.7973026592534155e-07  3.4948140033480155e-07  3.0620516848078668e-07  2.5790285446246048e-07  2.1091667339032783e-07  1.6909722561712811e-07  1.3401527024868252e-07  1.0568497705077131e-07  8.3317804185835398e-08  6.5863611389793172e-08  5.2306011103494475e-08  4.1780067783645262e-08  3.3593467334339675e-08  2.7207801618385999e-08  2.2209473894152185e-08  1.8282126685910540e-08  1.5183944213737734e-08  1.2729923625720080e-08  1.0778298810966077e-08  9.2202179245679069e-09  7.9719134630178358e-09  6.9687676090470702e-09  6.1608093215414947e-09  5.5093148560040476e-09  4.9841633101696481e-09  4.5620554543177100e-09  4.2244089964917657e-09  3.9580229371369201e-09  3.7492525589162671e-09  3.5959433544961226e-09  3.4772877475857110e-09  3.4180244281794274e-09  3.3580914250841218e-09  3.3937469454693974e-09  3.3675559502981679e-09  3.4956325852055681e-09  1.6200552637126055e-16  1.6202407918865103e-16  1.6217800346311793e-16  1.6363256690122429e-16  1.7759826904330547e-16  3.0015289930673393e-16  1.2636889081464832e-15  8.0984947072206611e-15  5.1983588460691286e-14  3.0692138433520027e-13  1.6458879458963111e-12  8.0025864573629108e-12  3.5278664316126566e-11  1.4104213520030497e-10  5.1151750331882381e-10  1.6834056242094965e-09  5.0293032562924463e-09  1.3646749962053592e-08  3.3651757368891949e-08  7.5466018980011781e-08  1.5404112494567954e-07  2.8650182679167303e-07  4.8618214353591724e-07  7.5399519314803535e-07  1.0708612689847585e-06  1.3964278904911227e-06  1.6774060610989098e-06  1.8636481782488374e-06  1.9248661751009530e-06  1.8597546658318553e-06  1.6934886085882211e-06  1.4660965809045883e-06  1.2184172865499928e-06  9.8190367708769816e-07  7.7485986724115143e-07  6.0395365769871810e-07  4.6816210876756628e-07  3.6269835269844827e-07  2.8174222901601942e-07  2.1987325017597168e-07  1.7259551891140657e-07  1.3638580381282493e-07  1.0855632014066343e-07  8.7079454115948448e-08  7.0430833944461132e-08  5.7464264367340695e-08  4.7316441930392063e-08  3.9335567021560899e-08  3.3028149349804769e-08  2.8019414216947062e-08  2.4023818242368802e-08  2.0823061366276125e-08  1.8249690321723424e-08  1.6174733406232814e-08  1.4498800387616769e-08  1.3144113276001273e-08  1.2052575877797540e-08  1.1172370984639014e-08  1.0480243374310659e-08  9.9168156943345287e-09  9.5277940465948968e-09  9.1597413185981031e-09  9.0522337825284953e-09  8.7686450812752365e-09  8.9509465454541302e-09  1.6199189554468802e-16  1.6206417273451957e-16  1.6274017711513458e-16  1.6982486622752235e-16  2.3836703173059931e-16  8.3325977189768083e-16  5.4922088262890590e-15  3.8516114108350495e-14  2.5029831732189503e-13  1.4782921166895066e-12  7.9149898023213869e-12  3.8411667142764549e-11  1.6899493217511163e-10  6.7418104385913766e-10  2.4394101284033453e-09  8.0082489490237734e-09  2.3861803714692777e-08  6.4563074640981116e-08  1.5871732664941068e-07  3.5474877011698352e-07  7.2150448725810763e-07  1.3366878732236118e-06  2.2586768419497266e-06  3.4866638380281015e-06  4.9268911510593600e-06  6.3891299912119848e-06  7.6277725769668522e-06  8.4173142815998081e-06  8.6283517651887356e-06  8.2664057235072964e-06  7.4566112234836470e-06  6.3876695906165602e-06  5.2468761844718648e-06  4.1746716289168632e-06  3.2494735914819617e-06  2.4964244751491285e-06  1.9065149802642277e-06  1.4548769228154553e-06  1.1131380067059566e-06  8.5566101212107885e-07  6.6162829980508269e-07  5.1501571446312445e-07  4.0379798239196078e-07  3.1904319060143644e-07  2.5413482849541645e-07  2.0416748366103185e-07  1.6549574186679770e-07  1.3540229876641850e-07  1.1185477396979811e-07  9.3327531972739644e-08  7.8670947496071407e-08  6.7015279047815911e-08  5.7699859154036077e-08  5.0220627746350720e-08  4.4191838558215753e-08  3.9315476532938901e-08  3.5365556272616341e-08  3.2154510559930073e-08  2.9570272135259495e-08  2.7439710209748684e-08  2.5828280517620909e-08  2.4351941505920686e-08  2.3581392596738126e-08  2.2358719808197941e-08  2.2479267369440416e-08  1.6192187668673924e-16  1.6221089457809928e-16  1.6518519572925271e-16  1.9670575517490380e-16  4.9858555697601699e-16  3.1085035867319608e-15  2.3530734773913489e-14  1.6810982548888947e-13  1.0936103407061525e-12  6.4495470903600004e-12  3.4468096310084755e-11  1.6694421964787418e-10  7.3293338699137017e-10  2.9173359636864383e-09  1.0530482883912818e-08  3.4481386674840288e-08  1.0246069610951696e-07  2.7641442321897986e-07  6.7737911515193845e-07  1.5089021244779836e-06  3.0577818196270763e-06  5.6430144893740001e-06  9.4956755793181719e-06  1.4592785388193493e-05  2.0521527348628224e-05  2.6474172453862298e-05  3.1429395140663720e-05  3.4471105621157839e-05  3.5099738841704394e-05  3.3380855642714724e-05  2.9867208223915676e-05  2.5357050273767806e-05  2.0623920905421682e-05  1.6234060138060666e-05  1.2491591364255170e-05  9.4812425231334553e-06  7.1509269297386561e-06  5.3881562635387763e-06  4.0703331803635138e-06  3.0892566659335299e-06  2.3585564080088337e-06  1.8127162669145755e-06  1.4032289834001993e-06  1.0945226666227193e-06  8.6056575176721918e-07  6.8228186471573837e-07  5.4565117949337865e-07  4.4033370729797404e-07  3.5867405607498123e-07  2.9498141016353