<?xml version="1.0"?>
<VTKFile type="UnstructuredGrid"  version="0.1"  >
<UnstructuredGrid>
<Piece  NumberOfPoints="4225" NumberOfCells="8192">
<Points>
<DataArray  type="Float64"  NumberOfComponents="3"  format="ascii">0 0 0  0.015625 0 0  0.03125 0 0  0.046875 0 0  0.0625 0 0  0.078125 0 0  0.09375 0 0  0.109375 0 0  0.125 0 0  0.140625 0 0  0.15625 0 0  0.171875 0 0  0.1875 0 0  0.203125 0 0  0.21875 0 0  0.234375 0 0  0.25 0 0  0.265625 0 0  0.28125 0 0  0.296875 0 0  0.3125 0 0  0.328125 0 0  0.34375 0 0  0.359375 0 0  0.375 0 0  0.390625 0 0  0.40625 0 0  0.421875 0 0  0.4375 0 0  0.453125 0 0  0.46875 0 0  0.484375 0 0  0.5 0 0  0.515625 0 0  0.53125 0 0  0.546875 0 0  0.5625 0 0  0.578125 0 0  0.59375 0 0  0.609375 0 0  0.625 0 0  0.640625 0 0  0.65625 0 0  0.671875 0 0  0.6875 0 0  0.703125 0 0  0.71875 0 0  0.734375 0 0  0.75 0 0  0.765625 0 0  0.78125 0 0  0.796875 0 0  0.8125 0 0  0.828125 0 0  0.84375 0 0  0.859375 0 0  0.875 0 0  0.890625 0 0  0.90625 0 0  0.921875 0 0  0.9375 0 0  0.953125 0 0  0.96875 0 0  0.984375 0 0  1 0 0  0 0.015625 0  0.015625 0.015625 0  0.03125 0.015625 0  0.046875 0.015625 0  0.0625 0.015625 0  0.078125 0.015625 0  0.09375 0.015625 0  0.109375 0.015625 0  0.125 0.015625 0  0.140625 0.015625 0  0.15625 0.015625 0  0.171875 0.015625 0  0.1875 0.015625 0  0.203125 0.015625 0  0.21875 0.015625 0  0.234375 0.015625 0  0.25 0.015625 0  0.265625 0.015625 0  0.28125 0.015625 0  0.296875 0.015625 0  0.3125 0.015625 0  0.328125 0.015625 0  0.34375 0.015625 0  0.359375 0.015625 0  0.375 0.015625 0  0.390625 0.015625 0  0.40625 0.015625 0  0.421875 0.015625 0  0.4375 0.015625 0  0.453125 0.015625 0  0.46875 0.015625 0  0.484375 0.015625 0  0.5 0.015625 0  0.515625 0.015625 0  0.53125 0.015625 0  0.546875 0.015625 0  0.5625 0.015625 0  0.578125 0.015625 0  0.59375 0.015625 0  0.609375 0.015625 0  0.625 0.015625 0  0.640625 0.015625 0  0.65625 0.015625 0  0.671875 0.015625 0  0.6875 0.015625 0  0.703125 0.015625 0  0.71875 0.015625 0  0.734375 0.015625 0  0.75 0.015625 0  0.765625 0.015625 0  0.78125 0.015625 0  0.796875 0.015625 0  0.8125 0.015625 0  0.828125 0.015625 0  0.84375 0.015625 0  0.859375 0.015625 0  0.875 0.015625 0  0.890625 0.015625 0  0.90625 0.015625 0  0.921875 0.015625 0  0.9375 0.015625 0  0.953125 0.015625 0  0.96875 0.015625 0  0.984375 0.015625 0  1 0.015625 0  0 0.03125 0  0.015625 0.03125 0  0.03125 0.03125 0  0.046875 0.03125 0  0.0625 0.03125 0  0.078125 0.03125 0  0.09375 0.03125 0  0.109375 0.03125 0  0.125 0.03125 0  0.140625 0.03125 0  0.15625 0.03125 0  0.171875 0.03125 0  0.1875 0.03125 0  0.203125 0.03125 0  0.21875 0.03125 0  0.234375 0.03125 0  0.25 0.03125 0  0.265625 0.03125 0  0.28125 0.03125 0  0.296875 0.03125 0  0.3125 0.03125 0  0.328125 0.03125 0  0.34375 0.03125 0  0.359375 0.03125 0  0.375 0.03125 0  0.390625 0.03125 0  0.40625 0.03125 0  0.421875 0.03125 0  0.4375 0.03125 0  0.453125 0.03125 0  0.46875 0.03125 0  0.484375 0.03125 0  0.5 0.03125 0  0.515625 0.03125 0  0.53125 0.03125 0  0.546875 0.03125 0  0.5625 0.03125 0  0.578125 0.03125 0  0.59375 0.03125 0  0.609375 0.03125 0  0.625 0.03125 0  0.640625 0.03125 0  0.65625 0.03125 0  0.671875 0.03125 0  0.6875 0.03125 0  0.703125 0.03125 0  0.71875 0.03125 0  0.734375 0.03125 0  0.75 0.03125 0  0.765625 0.03125 0  0.78125 0.03125 0  0.796875 0.03125 0  0.8125 0.03125 0  0.828125 0.03125 0  0.84375 0.03125 0  0.859375 0.03125 0  0.875 0.03125 0  0.890625 0.03125 0  0.90625 0.03125 0  0.921875 0.03125 0  0.9375 0.03125 0  0.953125 0.03125 0  0.96875 0.03125 0  0.984375 0.03125 0  1 0.03125 0  0 0.046875 0  0.015625 0.046875 0  0.03125 0.046875 0  0.046875 0.046875 0  0.0625 0.046875 0  0.078125 0.046875 0  0.09375 0.046875 0  0.109375 0.046875 0  0.125 0.046875 0  0.140625 0.046875 0  0.15625 0.046875 0  0.171875 0.046875 0  0.1875 0.046875 0  0.203125 0.046875 0  0.21875 0.046875 0  0.234375 0.046875 0  0.25 0.046875 0  0.265625 0.046875 0  0.28125 0.046875 0  0.296875 0.046875 0  0.3125 0.046875 0  0.328125 0.046875 0  0.34375 0.046875 0  0.359375 0.046875 0  0.375 0.046875 0  0.390625 0.046875 0  0.40625 0.046875 0  0.421875 0.046875 0  0.4375 0.046875 0  0.453125 0.046875 0  0.46875 0.046875 0  0.484375 0.046875 0  0.5 0.046875 0  0.515625 0.046875 0  0.53125 0.046875 0  0.546875 0.046875 0  0.5625 0.046875 0  0.578125 0.046875 0  0.59375 0.046875 0  0.609375 0.046875 0  0.625 0.046875 0  0.640625 0.046875 0  0.65625 0.046875 0  0.671875 0.046875 0  0.6875 0.046875 0  0.703125 0.046875 0  0.71875 0.046875 0  0.734375 0.046875 0  0.75 0.046875 0  0.765625 0.046875 0  0.78125 0.046875 0  0.796875 0.046875 0  0.8125 0.046875 0  0.828125 0.046875 0  0.84375 0.046875 0  0.859375 0.046875 0  0.875 0.046875 0  0.890625 0.046875 0  0.90625 0.046875 0  0.921875 0.046875 0  0.9375 0.046875 0  0.953125 0.046875 0  0.96875 0.046875 0  0.984375 0.046875 0  1 0.046875 0  0 0.0625 0  0.015625 0.0625 0  0.03125 0.0625 0  0.046875 0.0625 0  0.0625 0.0625 0  0.078125 0.0625 0  0.09375 0.0625 0  0.109375 0.0625 0  0.125 0.0625 0  0.140625 0.0625 0  0.15625 0.0625 0  0.171875 0.0625 0  0.1875 0.0625 0  0.203125 0.0625 0  0.21875 0.0625 0  0.234375 0.0625 0  0.25 0.0625 0  0.265625 0.0625 0  0.28125 0.0625 0  0.296875 0.0625 0  0.3125 0.0625 0  0.328125 0.0625 0  0.34375 0.0625 0  0.359375 0.0625 0  0.375 0.0625 0  0.390625 0.0625 0  0.40625 0.0625 0  0.421875 0.0625 0  0.4375 0.0625 0  0.453125 0.0625 0  0.46875 0.0625 0  0.484375 0.0625 0  0.5 0.0625 0  0.515625 0.0625 0  0.53125 0.0625 0  0.546875 0.0625 0  0.5625 0.0625 0  0.578125 0.0625 0  0.59375 0.0625 0  0.609375 0.0625 0  0.625 0.0625 0  0.640625 0.0625 0  0.65625 0.0625 0  0.671875 0.0625 0  0.6875 0.0625 0  0.703125 0.0625 0  0.71875 0.0625 0  0.734375 0.0625 0  0.75 0.0625 0  0.765625 0.0625 0  0.78125 0.0625 0  0.796875 0.0625 0  0.8125 0.0625 0  0.828125 0.0625 0  0.84375 0.0625 0  0.859375 0.0625 0  0.875 0.0625 0  0.890625 0.0625 0  0.90625 0.0625 0  0.921875 0.0625 0  0.9375 0.0625 0  0.953125 0.0625 0  0.96875 0.0625 0  0.984375 0.0625 0  1 0.0625 0  0 0.078125 0  0.015625 0.078125 0  0.03125 0.078125 0  0.046875 0.078125 0  0.0625 0.078125 0  0.078125 0.078125 0  0.09375 0.078125 0  0.109375 0.078125 0  0.125 0.078125 0  0.140625 0.078125 0  0.15625 0.078125 0  0.171875 0.078125 0  0.1875 0.078125 0  0.203125 0.078125 0  0.21875 0.078125 0  0.234375 0.078125 0  0.25 0.078125 0  0.265625 0.078125 0  0.28125 0.078125 0  0.296875 0.078125 0  0.3125 0.078125 0  0.328125 0.078125 0  0.34375 0.078125 0  0.359375 0.078125 0  0.375 0.078125 0  0.390625 0.078125 0  0.40625 0.078125 0  0.421875 0.078125 0  0.4375 0.078125 0  0.453125 0.078125 0  0.46875 0.078125 0  0.484375 0.078125 0  0.5 0.078125 0  0.515625 0.078125 0  0.53125 0.078125 0  0.546875 0.078125 0  0.5625 0.078125 0  0.578125 0.078125 0  0.59375 0.078125 0  0.609375 0.078125 0  0.625 0.078125 0  0.640625 0.078125 0  0.65625 0.078125 0  0.671875 0.078125 0  0.6875 0.078125 0  0.703125 0.078125 0  0.71875 0.078125 0  0.734375 0.078125 0  0.75 0.078125 0  0.765625 0.078125 0  0.78125 0.078125 0  0.796875 0.078125 0  0.8125 0.078125 0  0.828125 0.078125 0  0.84375 0.078125 0  0.859375 0.078125 0  0.875 0.078125 0  0.890625 0.078125 0  0.90625 0.078125 0  0.921875 0.078125 0  0.9375 0.078125 0  0.953125 0.078125 0  0.96875 0.078125 0  0.984375 0.078125 0  1 0.078125 0  0 0.09375 0  0.015625 0.09375 0  0.03125 0.09375 0  0.046875 0.09375 0  0.0625 0.09375 0  0.078125 0.09375 0  0.09375 0.09375 0  0.109375 0.09375 0  0.125 0.09375 0  0.140625 0.09375 0  0.15625 0.09375 0  0.171875 0.09375 0  0.1875 0.09375 0  0.203125 0.09375 0  0.21875 0.09375 0  0.234375 0.09375 0  0.25 0.09375 0  0.265625 0.09375 0  0.28125 0.09375 0  0.296875 0.09375 0  0.3125 0.09375 0  0.328125 0.09375 0  0.34375 0.09375 0  0.359375 0.09375 0  0.375 0.09375 0  0.390625 0.09375 0  0.40625 0.09375 0  0.421875 0.09375 0  0.4375 0.09375 0  0.453125 0.09375 0  0.46875 0.09375 0  0.484375 0.09375 0  0.5 0.09375 0  0.515625 0.09375 0  0.53125 0.09375 0  0.546875 0.09375 0  0.5625 0.09375 0  0.578125 0.09375 0  0.59375 0.09375 0  0.609375 0.09375 0  0.625 0.09375 0  0.640625 0.09375 0  0.65625 0.09375 0  0.671875 0.09375 0  0.6875 0.09375 0  0.703125 0.09375 0  0.71875 0.09375 0  0.734375 0.09375 0  0.75 0.09375 0  0.765625 0.09375 0  0.78125 0.09375 0  0.796875 0.09375 0  0.8125 0.09375 0  0.828125 0.09375 0  0.84375 0.09375 0  0.859375 0.09375 0  0.875 0.09375 0  0.890625 0.09375 0  0.90625 0.09375 0  0.921875 0.09375 0  0.9375 0.09375 0  0.953125 0.09375 0  0.96875 0.09375 0  0.984375 0.09375 0  1 0.09375 0  0 0.109375 0  0.015625 0.109375 0  0.03125 0.109375 0  0.046875 0.109375 0  0.0625 0.109375 0  0.078125 0.109375 0  0.09375 0.109375 0  0.109375 0.109375 0  0.125 0.109375 0  0.140625 0.109375 0  0.15625 0.109375 0  0.171875 0.109375 0  0.1875 0.109375 0  0.203125 0.109375 0  0.21875 0.109375 0  0.234375 0.109375 0  0.25 0.109375 0  0.265625 0.109375 0  0.28125 0.109375 0  0.296875 0.109375 0  0.3125 0.109375 0  0.328125 0.109375 0  0.34375 0.109375 0  0.359375 0.109375 0  0.375 0.109375 0  0.390625 0.109375 0  0.40625 0.109375 0  0.421875 0.109375 0  0.4375 0.109375 0  0.453125 0.109375 0  0.46875 0.109375 0  0.484375 0.109375 0  0.5 0.109375 0  0.515625 0.109375 0  0.53125 0.109375 0  0.546875 0.109375 0  0.5625 0.109375 0  0.578125 0.109375 0  0.59375 0.109375 0  0.609375 0.109375 0  0.625 0.109375 0  0.640625 0.109375 0  0.65625 0.109375 0  0.671875 0.109375 0  0.6875 0.109375 0  0.703125 0.109375 0  0.71875 0.109375 0  0.734375 0.109375 0  0.75 0.109375 0  0.765625 0.109375 0  0.78125 0.109375 0  0.796875 0.109375 0  0.8125 0.109375 0  0.828125 0.109375 0  0.84375 0.109375 0  0.859375 0.109375 0  0.875 0.109375 0  0.890625 0.109375 0  0.90625 0.109375 0  0.921875 0.109375 0  0.9375 0.109375 0  0.953125 0.109375 0  0.96875 0.109375 0  0.984375 0.109375 0  1 0.109375 0  0 0.125 0  0.015625 0.125 0  0.03125 0.125 0  0.046875 0.125 0  0.0625 0.125 0  0.078125 0.125 0  0.09375 0.125 0  0.109375 0.125 0  0.125 0.12
[...]
<PointData  Scalars="f_9634"> 
<DataArray  type="Float64"  Name="f_9634"  format="ascii">1.5344269625530005e-06  1.9019144038443936e-06  3.2959376507654735e-06  6.7466290676137309e-06  1.4440812812917074e-05  3.0889078971129903e-05  6.5119112917729865e-05  1.3464891854399172e-04  2.7238986993685535e-04  5.3807252570899577e-04  1.0361308139504217e-03  1.9419194418314619e-03  3.5371959970591895e-03  6.2533860335790966e-03  1.0716796940267294e-02  1.7783718054209714e-02  2.8546364133525841e-02  4.4285458180643000e-02  6.6345763729759769e-02  9.5921101269691278e-02  1.3375743422244044e-01  1.7981421475932621e-01  2.3295717794379742e-01  2.9077712758293112e-01  3.4962533641040827e-01  4.0491929677543281e-01  4.5170684266228250e-01  4.8539969932141180e-01  5.0252550659030026e-01  5.0132497645320362e-01  4.8205014701681254e-01  4.4689376351619592e-01  3.9957468818930919e-01  3.4468853058420246e-01  2.8698026777746566e-01  2.3069530827588142e-01  1.7912359177653303e-01  1.3438697462325799e-01  9.7456107208014717e-02  6.8337098227061091e-02  4.6348491973203239e-02  3.0413554625414185e-02  1.9313188356507076e-02  1.1870728102917021e-02  7.0630771553787091e-03  4.0684774588623561e-03  2.2687504805581258e-03  1.2246622137105706e-03  6.3978657880992148e-04  3.2337539136901932e-04  1.5806508883402221e-04  7.4671504287185148e-05  3.4065125998621909e-05  1.4991336252131735e-05  6.3554979607945980e-06  2.5909900074020549e-06  1.0134032805501216e-06  3.7911284376618408e-07  1.3509083764309345e-07  4.5587505856127681e-08  1.4446643113104318e-08  4.2430716917264097e-09  1.1290887316763266e-09  2.5819856853528320e-10  9.0137006218329749e-11  1.2945081583335656e-06  1.6238406832109359e-06  2.8585450318909599e-06  5.9394239367543428e-06  1.2874960045879707e-05  2.7853992077247795e-05  5.9352524299336758e-05  1.2399410277169512e-04  2.5333524288416009e-04  5.0522666176763657e-04  9.8180265357251657e-04  1.8561650246062377e-03  3.4089490532553113e-03  6.0735452568617546e-03  1.0484253208169115e-02  1.7515048580226494e-02  2.8289059603080549e-02  4.4132966231080532e-02  6.6450518698997985e-02  9.6499711053927378e-02  1.3508137292658429e-01  1.8218086987844481e-01  2.3664054181491823e-01  2.9596425417293565e-01  3.5635191545910172e-01  4.1302235183331520e-01  4.6081187237423371e-01  4.9495246577376256e-01  5.1186666918729573e-01  5.0979279556610979e-01  4.8908733577649055e-01  4.5213281763361268e-01  4.0288238293260903e-01  3.4616229126585607e-01  2.8690234457571673e-01  2.2946063906729927e-01  1.7716118594550226e-01  1.3209239741632633e-01  9.5146130051953923e-02  6.6229721613614290e-02  4.4564962312416398e-02  2.8995179536566978e-02  1.8244903698753142e-02  1.1104732292573014e-02  6.5382863161238145e-03  3.7240415177822303e-03  2.0517613503613910e-03  1.0932595575491005e-03  5.6321452766630608e-04  2.8040551733217803e-04  1.3483260554017615e-04  6.2566449224514084e-05  2.7986945406788889e-05  1.2050959544602146e-05  4.9858068869947593e-06  1.9771378082636212e-06  7.4904433021985272e-07  2.6989962596891704e-07  9.1909128206190207e-08  2.9298666428229447e-08  8.6104068174581213e-09  2.2693270259828779e-09  5.0490542694206132e-10  7.7830437490078888e-11  -1.7640176023166554e-12  9.4649810075406235e-07  1.1828340027863388e-06  2.1429201566623468e-06  4.5897963011509486e-06  1.0207850570499373e-05  2.2598262192228618e-05  4.9211665029836159e-05  1.0497656077443633e-04  2.1882655173609779e-04  4.4487952143387006e-04  8.8054137773701429e-04  1.6939773820973088e-03  3.1626613708748575e-03  5.7223269240624982e-03  1.0020888883410363e-02  1.6964592963482350e-02  2.7734837396987864e-02  4.3746712475498883e-02  6.6519115153926001e-02  9.7436766757663315e-02  1.3741003793071704e-01  1.8647719648775277e-01  2.4343577058894925e-01  3.0561847772428807e-01  3.6892646275962104e-01  4.2818765090716748e-01  4.7782570899432247e-01  5.1272834480156271e-01  5.2912691847660054e-01  5.2527460843932716e-01  5.0175219044334562e-01  4.6132774979392210e-01  4.0841625227188877e-01  3.4828569832123241e-01  2.8620661735024278e-01  2.2673019970479388e-01  1.7321960768043135e-01  1.2767596927956054e-01  9.0824391256682582e-02  6.2376416198458524e-02  4.1370345748887691e-02  2.6504153979587951e-02  1.6404958230312294e-02  9.8112383626492473e-03  5.6699241618108822e-03  3.1660173831140840e-03  1.7079068961302919e-03  8.8983361609449349e-04  4.4757217742839379e-04  2.1720400723599040e-04  1.0161852413693606e-04  4.5784221910027796e-05  1.9837780065633087e-05  8.2512342372023116e-06  3.2867486304653250e-06  1.2499099520956044e-06  4.5188577157030227e-07  1.5441449737216740e-07  4.9455803225618306e-08  1.4657858571032137e-08  3.9360100569638561e-09  9.1993738164567680e-10  1.6974141076115860e-10  1.5563954460863811e-11  -5.9171865552343700e-12  6.8887716723219487e-07  8.7343197999669725e-07  1.6298377920234445e-06  3.5852397565899989e-06  8.1619856119304364e-06  1.8467846985490686e-05  4.1069709456276214e-05  8.9401769151274850e-05  1.9003445390808246e-04  3.9364810914305237e-04  7.9319271479419916e-04  1.5520494200280449e-03  2.9444428515111283e-03  5.4080238739039280e-03  9.6035545036814180e-03  1.6468595574210907e-02  2.7241989578118245e-02  4.3426883806841059e-02  6.6657522091801757e-02  9.8445570632189422e-02  1.3980983024418273e-01  1.9083713501339158e-01  2.5027106365031609e-01  3.1525928534322856e-01  3.8138828259334168e-01  4.4308277740857760e-01  4.9435207019300753e-01  5.2975403176808689e-01  5.4536064064696399e-01  5.3948415108457060e-01  5.1297592641341094e-01  4.6902549087685086e-01  4.1252479820453081e-01  3.4917366305966180e-01  2.8455128557661480e-01  2.2335669159281166e-01  1.6894526979839353e-01  1.2319260054678217e-01  8.6633772252688993e-02  5.8777642479769271e-02  3.8485739265552141e-02  2.4325902273611043e-02  1.4846112023805359e-02  8.7497323291366585e-03  4.9801754818195590e-03  2.7374925334678548e-03  1.4529993627806722e-03  7.4451954267456188e-04  3.6814483364474535e-04  1.7557227721568325e-04  8.0698517635372085e-05  3.5712643206670603e-05  1.5197474177016600e-05  6.2086451278192588e-06  2.4297851593869624e-06  9.0837545171587704e-07  3.2319398710519311e-07  1.0887598584869381e-07  3.4473773519916981e-08  1.0146378540077177e-08  2.7253095966492694e-09  6.4507228305760246e-10  1.2348680149039432e-10  1.2206801150038103e-11  -3.6160960794152115e-12  4.9626444372150869e-07  6.3805814054026341e-07  1.2259389334038618e-06  2.7723824029079789e-06  6.4679816301825401e-06  1.4972825003906657e-05  3.4033386718478154e-05  7.5663365305231103e-05  1.6413013710525688e-04  3.4667324119704279e-04  7.1164248172430103e-04  1.4172614647509009e-03  2.7338583758935919e-03  5.1001817330447946e-03  9.1892328379595944e-03  1.5970268037723834e-02  2.6742078768770137e-02  4.3101683328300729e-02  6.6808378714576261e-02  9.9513493829892732e-02  1.4235696593745423e-01  1.9548179703593904e-01  2.5757422051951107e-01  3.2557816767064995e-01  3.9473147297243283e-01  4.5901228407762829e-01  5.1197389014844252e-01  5.4781738829344251e-01  5.6245315393623829e-01  5.5427781375775076e-01  5.2446018503409586e-01  4.7666695519469920e-01  4.1631682117319363e-01  3.4957344821871195e-01  2.8233387104328911e-01  2.1943331791555995e-01  1.6419425284293371e-01  1.1833714432394109e-01  8.2180858038713500e-02  5.5013307916697868e-02  3.5510052661349462e-02  2.2107195686089716e-02  1.3276865702769109e-02  7.6927373088722861e-03  4.3002175947153597e-03  2.3188594390646054e-03  1.2059341113024695e-03  6.0458512153193668e-04  2.9201777253481357e-04  1.3577052083688470e-04  6.0692797626859981e-05  2.6044688590185441e-05  1.0706050466559158e-05  4.2035265689848786e-06  1.5701231939109998e-06  5.5475136977374623e-07  1.8380865724078336e-07  5.6325512926930826e-08  1.5570288421279634e-08  3.6814348806340046e-09  6.3458478478440469e-10  1.1383428548846785e-11  -5.3551417277081261e-11  -3.1050379159153541e-11  -2.1555524103587995e-11  3.5383895222161697e-07  4.6176157627302294e-07  9.1466700221683848e-07  2.1279812174775230e-06  5.0905639214442475e-06  1.2063581764137557e-05  2.8044712580602571e-05  6.3718948039807603e-05  1.4114476161504580e-04  3.0417392744360214e-04  6.3649275634239215e-04  1.2908924556079035e-03  2.5332525776887876e-03  4.8026556597029211e-03  8.7837106174448055e-03  1.5477618301977554e-02  2.6245386574006643e-02  4.2783401712684292e-02  6.6985326066528447e-02  1.0065429440444518e-01  1.4506305681420489e-01  2.0041649915878862e-01  2.6533707338259038e-01  3.3654226551538674e-01  4.0888326178807538e-01  4.7584603345550786e-01  5.3048781940891676e-01  5.6663281976977031e-01  5.8003934379308597e-01  5.6922810863802642e-01  5.3574556621861980e-01  4.8379955634597194e-01  4.1938589298613516e-01  3.4915684634157562e-01  2.7932338304812399e-01  2.1483004332761507e-01  1.5892750113673418e-01  1.1314207649358896e-01  7.7546049509108317e-02  5.1188812141143014e-02  3.2554800648123106e-02  1.9952396807665886e-02  1.1786809749428494e-02  6.7121254835851765e-03  3.6845302461600035e-03  1.9494196596163275e-03  9.9382846257205313e-04  4.8798970326918310e-04  2.3063700322936413e-04  1.0483147663723302e-04  4.5772249263035663e-05  1.9169664026761798e-05  7.6859224121084871e-06  2.9429242119972526e-06  1.0727436727416118e-06  3.7076140233790958e-07  1.2087510806077284e-07  3.6932268146583401e-08  1.0493717319700633e-08  2.7512392134090902e-09  6.6425186589905029e-10  1.5132383050361460e-10  3.5957419239696734e-11  1.0395746492237887e-11  8.7730264634306147e-12  2.4956941705537428e-07  3.3085838610813223e-07  6.7638911867025242e-07  1.6199373714221956e-06  3.9760626549776380e-06  9.6525209549499499e-06  2.2966729203597814e-05  5.3365582969873636e-05  1.2079552891441685e-04  2.6578098496440867e-04  5.6729006899265016e-04  1.1724058585084885e-03  2.3419782683105571e-03  4.5145855789136590e-03  8.3856969855971800e-03  1.4988611693530293e-02  2.5748893254669676e-02  4.2468249685797432e-02  6.7185060664739657e-02  1.0186803778917101e-01  1.4793626337038085e-01  2.0566347585385927e-01  2.7360155016968363e-01  3.4821611196218882e-01  4.2392877698848691e-01  4.9368190232517922e-01  5.4999204600562801e-01  5.8628514655074593e-01  5.9818005657834583e-01  5.8436786775238636e-01  5.4684054389742165e-01  4.9041704136981817e-01  4.2172287690950294e-01  3.4792174654112978e-01  2.7552983651886132e-01  2.0956858283342281e-01  1.5317378280176194e-01  1.0763676933652569e-01  7.2753487614388546e-02  4.7319431091977969e-02  2.9625435020973361e-02  1.7858397366889080e-02  1.0366829498130423e-02  5.7956486552880456e-03  3.1202093400719928e-03  1.6173380108592218e-03  8.0684139880489252e-04  3.8716023559373885e-04  1.7854298937644249e-04  7.9038645141327185e-05  3.3534788348579709e-05  1.3607663040322150e-05  5.2654599702271404e-06  1.9350198585668331e-06  6.7138761202846263e-07  2.1796927153488369e-07  6.5235863313802528e-08  1.7503595904363753e-08  3.9482033160486409e-09  5.9744025351678250e-10  -4.2251836116498802e-11  -8.5932091278492279e-11  -4.7383099096592686e-11  -2.0025648152582704e-11  -1.4020410521336192e-11  1.7403658820348362e-07  2.3459829985483679e-07  4.9552965502823040e-07  1.2225115605058351e-06  3.0807196641208747e-06  7.6670688648489747e-06  1.8684947356871423e-05  4.4434142810980654e-05  1.0285178732947842e-04  2.3120875631478199e-04  5.0371957141537803e-04  1.0614989900437995e-03  2.1597784718919303e-03  4.2357397002419387e-03  7.9948605178687213e-03  1.4502590149140805e-02  2.5251429836739784e-02  4.2154774196002130e-02  6.7407056122554515e-02  1.0315788020707684e-01  1.5098784573448276e-01  2.1124736881688505e-01  2.8240985434469440e-01  3.6065986030714670e-01  4.3994039100948923e-01  5.1259209988365217e-01  5.7054180464335025e-01  6.0679612156818086e-01  6.1685297999398292e-01  5.9963021165192043e-01  5.5764404812594082e-01  4.9640240546789516e-01  4.2321542588602140e-01  3.4577757185610952e-01  2.7089410366902122e-01  2.0362249160255219e-01  1.4693379589125979e-01  1.0183991047654360e-01  6.7830318955408031e-02  4.3433153626621104e-02  2.6746064291052050e-02  1.5843462543703841e-02  9.0293732521649957e-03  4.9510312614136198e-03  2.6116607564859833e-03  1.3249584625606090e-03  6.4617404049393526e-04  3.0272975185108520e-04  1.3611088589072904e-04  5.8652139359143969e-05  2.4179928656631869e-05  9.5143756829733107e-06  3.5620112069059701e-06  1.2634846129001588e-06  4.2219671045632316e-07  1.3185021706249004e-07  3.8053880527753274e-08  9.9895408997234467e-09  2.3343715298557365e-09  4.7646416346694850e-10  8.9677247703436656e-11  2.2955441999604927e-11  1.1601033893323817e-11  7.1487517914304469e-12  7.6780180765349016e-12  1.1992326330825605e-07  1.6452535952534456e-07  3.5945844668042537e-07  9.1411625308355392e-07  2.3667034560310107e-06  6.0427770302671227e-06  1.5095146298170349e-05  3.6766939193617741e-05  8.7093273189235422e-05  2.0017750649233663e-04  4.4546378425423767e-04  9.5785355923161050e-04  1.9863611932454594e-03  3.9658171444482858e-03  7.6107324278458623e-03  1.4018625892492432e-02  2.4751338588631187e-02  4.1840753244516297e-02  6.7649803182656079e-02  1.0452610565360985e-01  1.5422896668448000e-01  2.1719442380553194e-01  2.9180838166849543e-01  3.7394083155033825e-01  4.5700011607286029e-01  5.3265952225585267e-01  5.9220220465227080e-01  6.2819513197239929e-01  6.3604101832319804e-01  6.1495242318469323e-01  5.6806054667445016e-01  5.0164800172947910e-01  4.2376571544815478e-01  3.4265303804421388e-01  2.6537909175197139e-01  1.9698717504252009e-01  1.4022705286045584e-01  9.5783987661718556e-02  6.2811734106733547e-02  3.9560663874155196e-02  2.3939317500273959e-02  1.3921676823940736e-02  7.7813957233392834e-03  4.1802689602301020e-03  2.1580240659635412e-03  1.0701771583917887e-03  5.0950172240346223e-04  2.3267467925743493e-04  1.0179791569519179e-04  4.2598595678320439e-05  1.7011536245661313e-05  6.4633390408835136e-06  2.3264782856690734e-06  7.8858433840236278e-07  2.4944461031649151e-07  7.2564017889930305e-08  1.8902270774599963e-08  4.1555256868078311e-09  6.3401218439999563e-10  -1.9766480422932148e-11  -6.9463671790910518e-11  -3.8582736477686425e-11  -1.6616038701969053e-11  -6.7109189938778231e-12  -5.3532589176241859e-12  8.1603706479229377e-08  1.1405459814971025e-07  2.5803546305394012e-07  6.7685160567561013e-07  1.8017343497976550e-06  4.7232258884770429e-06  1.2103911770769895e-05  3.0219549881749140e-05  7.3314384824874342e-05  1.7242216665169728e-04  3.9221937724311518e-04  8.6116670118934044e-04  1.8214549264410661e-03  3.7045430174252837e-03  7.2328603325250897e-03  1.3535753702475287e-02  2.4246799464261379e-02  4.1523625229757027e-02  6.7911346296158456e-02  1.0597477432953528e-01  1.5767144816185175e-01  2.2353329749743481e-01  3.0184837137596549e-01  3.8813353852150323e-01  4.7519819638378413e-01  5.5397384004681194e-01  6.1504070688437029e-01  6.5050726644919898e-01  6.5571575907176860e-01  6.3025534617765011e-01  5.7797651223394431e-01  5.0603053522821861e-01  4.2326544585335674e-01  3.3847246979863466e-01  2.5894843571487264e-01  1.8966178337685674e-01  1.3307757251388880e-01  8.9505112259004080e-02  5.7734942848328454e-02  3.5733146554676819e-02  2.1227350410312370e-02  1.2106314693282992e-02  6.6291883985276079e-03  3.4850810380231459e-03  1.7585750864463961e-03  8.5133496777963554e-04  3.9510509866157417e-04  1.7560513070795491e-04  7.4633876109239005e-05  3.0271939203168100e-05  1.1686176000823434e-05  4.2778515458296231e-06  1.4773009180514221e-06  4.7776343640321006e-07  1.4311845911342462e-07  3.9024642533150071e-08  9.3944815700160074e-09  1.8758176521967786e-09  2.6178111651328211e-10  6.4546437259034321e-12  -6.2985256789968904e-12  1.8224108595783324e-12  3.9932133808627258e-12  3.0589837102125751e-12  3.2754563077685275e-12  5.4798351701055608e-08  7.8106753105150541e-08  1.8318216759333650e-07  4.9596995541414232e-07  1.3584145032726415e-06  3.6592264116178235e-06  9.6277547988378300e-06  2.4659906802301341e-05  6.1323218882331458e-05  1.4769113993757231e-04  3.4369541665174277e-04  7.7114836547606069e-04  1.6648050753314690e-03  3.4516634084187522e-03  6.8607987437793779e-03  1.3052946925637037e-02  2.3735771217162614e-02  4.1200368136949932e-02  6.8189086048894801e-02  1.0750547882321164e-01  1.6132758641531439e-01  2.3029510347719520e-01  3.1258635088309511e-01  4.0332057709943619e-01  4.9463428515386476e-01  5.7663262259565051e-01  6.3912786163853230e-01  6.7375359337599894e-01  6.7583764124605061e-01  6.4544415090200280e-01  5.8726255369917735e-01  5.0941501845918491e-01  4.2160152940946116e-01  3.3316259350958760e-01  2.5157347973629646e-01  1.8165550067465341e-01  1.2551887876755408e-01  8.3046500785121311e-02  5.2641222977228674e-02  3.1983166955198664e-02  1.8631871722148578e-02  1.0409298025743956e-02  5.5774925936465831e-03  2.8658457048292263e-03  1.4116058784529330e-03  6.6613222449354110e-04  3.0088318157703628e-04  1.2991558883814242e-04  5.3526573274986234e-05  2.0992024691231110e-05  7.8100153999596005e-06  2.7436293836070014e-06  9.0398224116673293e-07  2.7655827915525260e-07  7.7298861643437522e-08  1.9170361799454546e-08  3.9565200660463968e-09  5.5039785826091486e-10  -2.2233272113472538e-11  -5.2016284062291869e-11  -2.4345477775552705e-11  -8.7888348886323111e-12  -3.1671343379265713e-12  -1.3733969227729964e-12  -1.4083353140994698e-12  3.6287713972581526e-08  5.2803066162644753e-08  1.2851542419060167e-07  3.5940813549925591e-07  1.0136376554098530e-06  2.8081277358888698e-06  7.5923914449714810e-06  1.9967659874509659e-05  5.0941117560400046e-05  1.2574608039923226e-04  2.9961347160622066e-04  6.8752225764737564e-04  1.5161771398408931e-03  3.2069529524059170e-03  6.4941215916564602e-03  1.2569128865336187e-02  2.3215983395059717e-02  4.0867443593915267e-02  6.8479655390079094e-02  1.0911917786294163e-01  1.6521004665503447e-01  2.3751353626010166e-01  3.2408463112358987e-01  4.1959345958865696e-01  5.1541829649097382e-01  6.0074164802191188e-01  6.6453651891380183e-01  6.9794904949431036e-01  6.9635284821284094e-01  6.6040502427676051e-01  5.9577080705635954e-01  5.1165344666987256e-01  4.1865606538458833e-01  3.2665331756413518e-01  2.4323415749456354e-01  1.7298795053845165e-01  1.1759369468246084e-01  7.6457563987542859e-02  4.7574715265969542e-02  2.8343509197357099e-02  1.6173261803279371e-02  8.8406887392694349e-03  4.6293396588204137e-03  2.3216954325777340e-03  1.1146679627678146e-03  5.1193000859467159e-04  2.2465232915117476e-04  9.4049013102939652e-05  3.7478612349555613e-05  1.4173692650450152e-05  5.0655845217316149e-06  1.7007601394891491e-06  5.3178750003813163e-07  1.5277040649648209e-07  3.9408953697103709e-08  8.7292534092338301e-09  1.4821760120105098e-09  1.0801652658005904e-10  -4.3962393895387348e-11  -2.2547069546160827e-11  -4.4226895121056058e-12  9.5219248312249500e-13  1.3972538619497431e-12  8.9370210342015376e-13  8.7845216856137444e-13  2.3677902926912046e-08  3.5212442957869955e-08  8.9035295644565988e-08  2.5737357687514617e-07  7.4804662942004547e-07  2.1331560387248838e-06  5.9320242517740231e-06  1.6033498704390979e-05  4.2002107111978414e-05  1.0636144368911656e-04  2.5970726821566102e-04  6.1002597224851221e-04  1.3753586776575561e-03  2.9702208079350457e-03  6.1324324614605219e-03  1.2083178567090371e-02  2.2684910888799311e-02  4.0520693093852901e-02  6.8778687944462777e-02  1.1081582660616403e-01  1.6933142837611251e-01  2.4522452327034922e-01  3.3641117966376338e-01  4.3705266203436338e-01  5.3767027919025501e-01  6.2641402339550134e-01  6.9133968141241042e-01  7.2309896375015414e-01  7.1718909619827653e-01  6.7500130490792221e-01  6.0333250173377040e-01  5.1258436438013033e-01  4.1430771847179226e-01  3.1888013369330526e-01  2.3392144664558073e-01  1.6369097338820926e-01  1.0935476396439524e-01  6.9793905797405992e-02  4.2581949765171677e-02  2.4846586469503478e-02  1.3870101090578756e-02  7.4084198455005119e-03  3.7859603737444929e-03  1.8505332674820935e-03  8.6462539920355752e-04  3.8579445386872034e-04  1.6416333753173189e-04  6.6487140888207922e-05  2.556002184