<?xml version="1.0"?>
<VTKFile type="UnstructuredGrid"  version="0.1"  >
<UnstructuredGrid>
<Piece  NumberOfPoints="4225" NumberOfCells="8192">
<Points>
<DataArray  type="Float64"  NumberOfComponents="3"  format="ascii">0 0 0  0.015625 0 0  0.03125 0 0  0.046875 0 0  0.0625 0 0  0.078125 0 0  0.09375 0 0  0.109375 0 0  0.125 0 0  0.140625 0 0  0.15625 0 0  0.171875 0 0  0.1875 0 0  0.203125 0 0  0.21875 0 0  0.234375 0 0  0.25 0 0  0.265625 0 0  0.28125 0 0  0.296875 0 0  0.3125 0 0  0.328125 0 0  0.34375 0 0  0.359375 0 0  0.375 0 0  0.390625 0 0  0.40625 0 0  0.421875 0 0  0.4375 0 0  0.453125 0 0  0.46875 0 0  0.484375 0 0  0.5 0 0  0.515625 0 0  0.53125 0 0  0.546875 0 0  0.5625 0 0  0.578125 0 0  0.59375 0 0  0.609375 0 0  0.625 0 0  0.640625 0 0  0.65625 0 0  0.671875 0 0  0.6875 0 0  0.703125 0 0  0.71875 0 0  0.734375 0 0  0.75 0 0  0.765625 0 0  0.78125 0 0  0.796875 0 0  0.8125 0 0  0.828125 0 0  0.84375 0 0  0.859375 0 0  0.875 0 0  0.890625 0 0  0.90625 0 0  0.921875 0 0  0.9375 0 0  0.953125 0 0  0.96875 0 0  0.984375 0 0  1 0 0  0 0.015625 0  0.015625 0.015625 0  0.03125 0.015625 0  0.046875 0.015625 0  0.0625 0.015625 0  0.078125 0.015625 0  0.09375 0.015625 0  0.109375 0.015625 0  0.125 0.015625 0  0.140625 0.015625 0  0.15625 0.015625 0  0.171875 0.015625 0  0.1875 0.015625 0  0.203125 0.015625 0  0.21875 0.015625 0  0.234375 0.015625 0  0.25 0.015625 0  0.265625 0.015625 0  0.28125 0.015625 0  0.296875 0.015625 0  0.3125 0.015625 0  0.328125 0.015625 0  0.34375 0.015625 0  0.359375 0.015625 0  0.375 0.015625 0  0.390625 0.015625 0  0.40625 0.015625 0  0.421875 0.015625 0  0.4375 0.015625 0  0.453125 0.015625 0  0.46875 0.015625 0  0.484375 0.015625 0  0.5 0.015625 0  0.515625 0.015625 0  0.53125 0.015625 0  0.546875 0.015625 0  0.5625 0.015625 0  0.578125 0.015625 0  0.59375 0.015625 0  0.609375 0.015625 0  0.625 0.015625 0  0.640625 0.015625 0  0.65625 0.015625 0  0.671875 0.015625 0  0.6875 0.015625 0  0.703125 0.015625 0  0.71875 0.015625 0  0.734375 0.015625 0  0.75 0.015625 0  0.765625 0.015625 0  0.78125 0.015625 0  0.796875 0.015625 0  0.8125 0.015625 0  0.828125 0.015625 0  0.84375 0.015625 0  0.859375 0.015625 0  0.875 0.015625 0  0.890625 0.015625 0  0.90625 0.015625 0  0.921875 0.015625 0  0.9375 0.015625 0  0.953125 0.015625 0  0.96875 0.015625 0  0.984375 0.015625 0  1 0.015625 0  0 0.03125 0  0.015625 0.03125 0  0.03125 0.03125 0  0.046875 0.03125 0  0.0625 0.03125 0  0.078125 0.03125 0  0.09375 0.03125 0  0.109375 0.03125 0  0.125 0.03125 0  0.140625 0.03125 0  0.15625 0.03125 0  0.171875 0.03125 0  0.1875 0.03125 0  0.203125 0.03125 0  0.21875 0.03125 0  0.234375 0.03125 0  0.25 0.03125 0  0.265625 0.03125 0  0.28125 0.03125 0  0.296875 0.03125 0  0.3125 0.03125 0  0.328125 0.03125 0  0.34375 0.03125 0  0.359375 0.03125 0  0.375 0.03125 0  0.390625 0.03125 0  0.40625 0.03125 0  0.421875 0.03125 0  0.4375 0.03125 0  0.453125 0.03125 0  0.46875 0.03125 0  0.484375 0.03125 0  0.5 0.03125 0  0.515625 0.03125 0  0.53125 0.03125 0  0.546875 0.03125 0  0.5625 0.03125 0  0.578125 0.03125 0  0.59375 0.03125 0  0.609375 0.03125 0  0.625 0.03125 0  0.640625 0.03125 0  0.65625 0.03125 0  0.671875 0.03125 0  0.6875 0.03125 0  0.703125 0.03125 0  0.71875 0.03125 0  0.734375 0.03125 0  0.75 0.03125 0  0.765625 0.03125 0  0.78125 0.03125 0  0.796875 0.03125 0  0.8125 0.03125 0  0.828125 0.03125 0  0.84375 0.03125 0  0.859375 0.03125 0  0.875 0.03125 0  0.890625 0.03125 0  0.90625 0.03125 0  0.921875 0.03125 0  0.9375 0.03125 0  0.953125 0.03125 0  0.96875 0.03125 0  0.984375 0.03125 0  1 0.03125 0  0 0.046875 0  0.015625 0.046875 0  0.03125 0.046875 0  0.046875 0.046875 0  0.0625 0.046875 0  0.078125 0.046875 0  0.09375 0.046875 0  0.109375 0.046875 0  0.125 0.046875 0  0.140625 0.046875 0  0.15625 0.046875 0  0.171875 0.046875 0  0.1875 0.046875 0  0.203125 0.046875 0  0.21875 0.046875 0  0.234375 0.046875 0  0.25 0.046875 0  0.265625 0.046875 0  0.28125 0.046875 0  0.296875 0.046875 0  0.3125 0.046875 0  0.328125 0.046875 0  0.34375 0.046875 0  0.359375 0.046875 0  0.375 0.046875 0  0.390625 0.046875 0  0.40625 0.046875 0  0.421875 0.046875 0  0.4375 0.046875 0  0.453125 0.046875 0  0.46875 0.046875 0  0.484375 0.046875 0  0.5 0.046875 0  0.515625 0.046875 0  0.53125 0.046875 0  0.546875 0.046875 0  0.5625 0.046875 0  0.578125 0.046875 0  0.59375 0.046875 0  0.609375 0.046875 0  0.625 0.046875 0  0.640625 0.046875 0  0.65625 0.046875 0  0.671875 0.046875 0  0.6875 0.046875 0  0.703125 0.046875 0  0.71875 0.046875 0  0.734375 0.046875 0  0.75 0.046875 0  0.765625 0.046875 0  0.78125 0.046875 0  0.796875 0.046875 0  0.8125 0.046875 0  0.828125 0.046875 0  0.84375 0.046875 0  0.859375 0.046875 0  0.875 0.046875 0  0.890625 0.046875 0  0.90625 0.046875 0  0.921875 0.046875 0  0.9375 0.046875 0  0.953125 0.046875 0  0.96875 0.046875 0  0.984375 0.046875 0  1 0.046875 0  0 0.0625 0  0.015625 0.0625 0  0.03125 0.0625 0  0.046875 0.0625 0  0.0625 0.0625 0  0.078125 0.0625 0  0.09375 0.0625 0  0.109375 0.0625 0  0.125 0.0625 0  0.140625 0.0625 0  0.15625 0.0625 0  0.171875 0.0625 0  0.1875 0.0625 0  0.203125 0.0625 0  0.21875 0.0625 0  0.234375 0.0625 0  0.25 0.0625 0  0.265625 0.0625 0  0.28125 0.0625 0  0.296875 0.0625 0  0.3125 0.0625 0  0.328125 0.0625 0  0.34375 0.0625 0  0.359375 0.0625 0  0.375 0.0625 0  0.390625 0.0625 0  0.40625 0.0625 0  0.421875 0.0625 0  0.4375 0.0625 0  0.453125 0.0625 0  0.46875 0.0625 0  0.484375 0.0625 0  0.5 0.0625 0  0.515625 0.0625 0  0.53125 0.0625 0  0.546875 0.0625 0  0.5625 0.0625 0  0.578125 0.0625 0  0.59375 0.0625 0  0.609375 0.0625 0  0.625 0.0625 0  0.640625 0.0625 0  0.65625 0.0625 0  0.671875 0.0625 0  0.6875 0.0625 0  0.703125 0.0625 0  0.71875 0.0625 0  0.734375 0.0625 0  0.75 0.0625 0  0.765625 0.0625 0  0.78125 0.0625 0  0.796875 0.0625 0  0.8125 0.0625 0  0.828125 0.0625 0  0.84375 0.0625 0  0.859375 0.0625 0  0.875 0.0625 0  0.890625 0.0625 0  0.90625 0.0625 0  0.921875 0.0625 0  0.9375 0.0625 0  0.953125 0.0625 0  0.96875 0.0625 0  0.984375 0.0625 0  1 0.0625 0  0 0.078125 0  0.015625 0.078125 0  0.03125 0.078125 0  0.046875 0.078125 0  0.0625 0.078125 0  0.078125 0.078125 0  0.09375 0.078125 0  0.109375 0.078125 0  0.125 0.078125 0  0.140625 0.078125 0  0.15625 0.078125 0  0.171875 0.078125 0  0.1875 0.078125 0  0.203125 0.078125 0  0.21875 0.078125 0  0.234375 0.078125 0  0.25 0.078125 0  0.265625 0.078125 0  0.28125 0.078125 0  0.296875 0.078125 0  0.3125 0.078125 0  0.328125 0.078125 0  0.34375 0.078125 0  0.359375 0.078125 0  0.375 0.078125 0  0.390625 0.078125 0  0.40625 0.078125 0  0.421875 0.078125 0  0.4375 0.078125 0  0.453125 0.078125 0  0.46875 0.078125 0  0.484375 0.078125 0  0.5 0.078125 0  0.515625 0.078125 0  0.53125 0.078125 0  0.546875 0.078125 0  0.5625 0.078125 0  0.578125 0.078125 0  0.59375 0.078125 0  0.609375 0.078125 0  0.625 0.078125 0  0.640625 0.078125 0  0.65625 0.078125 0  0.671875 0.078125 0  0.6875 0.078125 0  0.703125 0.078125 0  0.71875 0.078125 0  0.734375 0.078125 0  0.75 0.078125 0  0.765625 0.078125 0  0.78125 0.078125 0  0.796875 0.078125 0  0.8125 0.078125 0  0.828125 0.078125 0  0.84375 0.078125 0  0.859375 0.078125 0  0.875 0.078125 0  0.890625 0.078125 0  0.90625 0.078125 0  0.921875 0.078125 0  0.9375 0.078125 0  0.953125 0.078125 0  0.96875 0.078125 0  0.984375 0.078125 0  1 0.078125 0  0 0.09375 0  0.015625 0.09375 0  0.03125 0.09375 0  0.046875 0.09375 0  0.0625 0.09375 0  0.078125 0.09375 0  0.09375 0.09375 0  0.109375 0.09375 0  0.125 0.09375 0  0.140625 0.09375 0  0.15625 0.09375 0  0.171875 0.09375 0  0.1875 0.09375 0  0.203125 0.09375 0  0.21875 0.09375 0  0.234375 0.09375 0  0.25 0.09375 0  0.265625 0.09375 0  0.28125 0.09375 0  0.296875 0.09375 0  0.3125 0.09375 0  0.328125 0.09375 0  0.34375 0.09375 0  0.359375 0.09375 0  0.375 0.09375 0  0.390625 0.09375 0  0.40625 0.09375 0  0.421875 0.09375 0  0.4375 0.09375 0  0.453125 0.09375 0  0.46875 0.09375 0  0.484375 0.09375 0  0.5 0.09375 0  0.515625 0.09375 0  0.53125 0.09375 0  0.546875 0.09375 0  0.5625 0.09375 0  0.578125 0.09375 0  0.59375 0.09375 0  0.609375 0.09375 0  0.625 0.09375 0  0.640625 0.09375 0  0.65625 0.09375 0  0.671875 0.09375 0  0.6875 0.09375 0  0.703125 0.09375 0  0.71875 0.09375 0  0.734375 0.09375 0  0.75 0.09375 0  0.765625 0.09375 0  0.78125 0.09375 0  0.796875 0.09375 0  0.8125 0.09375 0  0.828125 0.09375 0  0.84375 0.09375 0  0.859375 0.09375 0  0.875 0.09375 0  0.890625 0.09375 0  0.90625 0.09375 0  0.921875 0.09375 0  0.9375 0.09375 0  0.953125 0.09375 0  0.96875 0.09375 0  0.984375 0.09375 0  1 0.09375 0  0 0.109375 0  0.015625 0.109375 0  0.03125 0.109375 0  0.046875 0.109375 0  0.0625 0.109375 0  0.078125 0.109375 0  0.09375 0.109375 0  0.109375 0.109375 0  0.125 0.109375 0  0.140625 0.109375 0  0.15625 0.109375 0  0.171875 0.109375 0  0.1875 0.109375 0  0.203125 0.109375 0  0.21875 0.109375 0  0.234375 0.109375 0  0.25 0.109375 0  0.265625 0.109375 0  0.28125 0.109375 0  0.296875 0.109375 0  0.3125 0.109375 0  0.328125 0.109375 0  0.34375 0.109375 0  0.359375 0.109375 0  0.375 0.109375 0  0.390625 0.109375 0  0.40625 0.109375 0  0.421875 0.109375 0  0.4375 0.109375 0  0.453125 0.109375 0  0.46875 0.109375 0  0.484375 0.109375 0  0.5 0.109375 0  0.515625 0.109375 0  0.53125 0.109375 0  0.546875 0.109375 0  0.5625 0.109375 0  0.578125 0.109375 0  0.59375 0.109375 0  0.609375 0.109375 0  0.625 0.109375 0  0.640625 0.109375 0  0.65625 0.109375 0  0.671875 0.109375 0  0.6875 0.109375 0  0.703125 0.109375 0  0.71875 0.109375 0  0.734375 0.109375 0  0.75 0.109375 0  0.765625 0.109375 0  0.78125 0.109375 0  0.796875 0.109375 0  0.8125 0.109375 0  0.828125 0.109375 0  0.84375 0.109375 0  0.859375 0.109375 0  0.875 0.109375 0  0.890625 0.109375 0  0.90625 0.109375 0  0.921875 0.109375 0  0.9375 0.109375 0  0.953125 0.109375 0  0.96875 0.109375 0  0.984375 0.109375 0  1 0.109375 0  0 0.125 0  0.015625 0.125 0  0.03125 0.125 0  0.046875 0.125 0  0.0625 0.125 0  0.078125 0.125 0  0.09375 0.125 0  0.109375 0.125 0  0.125 0.12
[...]
<PointData  Scalars="f_9634"> 
<DataArray  type="Float64"  Name="f_9634"  format="ascii">3.3666932552070804e-15  3.5238386423935605e-15  3.8214275858536941e-15  4.1843883902529179e-15  4.5863440798141408e-15  5.0173314434642239e-15  5.4728413187815576e-15  5.9499980409241841e-15  6.4462125741629466e-15  6.9587130865670549e-15  7.4844018354804608e-15  8.0198491499373381e-15  8.5613644711671504e-15  9.1051343107765047e-15  9.6474343368864763e-15  1.0184899914991322e-14  1.0714719427188549e-14  1.1234311876107216e-14  1.1739563075165878e-14  1.2220339686383247e-14  1.2652572358539291e-14  1.2988578828563541e-14  1.3151218744314777e-14  1.3040287098636005e-14  1.2557040145376613e-14  1.1643002697100059e-14  1.0316797966691433e-14  8.6875695263400966e-15  6.9327332478804960e-15  5.2473884314101762e-15  3.7891008483320000e-15  2.6429846779409864e-15  1.8182085447968875e-15  1.2694785134543361e-15  9.2746252072934927e-16  7.2384365527506591e-16  6.0474234076085281e-16  5.3370872013986561e-16  4.8880776006170870e-16  4.5797536964064767e-16  4.3498473483067777e-16  4.1672494201648999e-16  4.0163312844651245e-16  3.8888476995004874e-16  3.7800503629148413e-16  3.6868945201196783e-16  3.6072151619337073e-16  3.5393371466732571e-16  3.4818797043168428e-16  3.4336511802896643e-16  3.3935885622883828e-16  3.3607213000692301e-16  3.3341496440887331e-16  3.3130324514683264e-16  3.2965815535585087e-16  3.2840607731224135e-16  3.2747881367741584e-16  3.2681400340353609e-16  3.2635561727567630e-16  3.2605442543644571e-16  3.2586833934581369e-16  3.2576254676628518e-16  3.2570938223647134e-16  3.2568790720634486e-16  3.2568321195890222e-16  3.3783294861586437e-15  3.5171550382982226e-15  3.8187590539259161e-15  4.1833887056612861e-15  4.5859122306111944e-15  5.0170760580758292e-15  5.4726245772633793e-15  5.9497723084190865e-15  6.4459649889239016e-15  6.9584505284228525e-15  7.4841606034223346e-15  8.0197503494662466e-15  8.5618062316312224e-15  9.1073877651056358e-15  9.6553012628194191e-15  1.0208776054948068e-14  1.0780200019711554e-14  1.1397515828466798e-14  1.2108947558676836e-14  1.2978359667145692e-14  1.4061267837303921e-14  1.5357558433384222e-14  1.6754772555611119e-14  1.7997522349079515e-14  1.8723843737466122e-14  1.8580482615347913e-14  1.7374976115647447e-14  1.5182407716341175e-14  1.2338561250274747e-14  9.3174037243711481e-15  6.5609461750103248e-15  4.3504118625983541e-15  2.7692811566952054e-15  1.7483007174709783e-15  1.1451450238461103e-15  8.1305011882936764e-16  6.3758005909587221e-16  5.4448569586436277e-16  4.9190439859091551e-16  4.5871376506512158e-16  4.3509950783066574e-16  4.1670819683167310e-16  4.0160202263595124e-16  3.8885967543866453e-16  3.7798626884510274e-16  3.6867490133488113e-16  3.6070961515688488e-16  3.5392352244502398e-16  3.4817893287937101e-16  3.4335690247137849e-16  3.3935126244481105e-16  3.3606504305389293e-16  3.3340832780026194e-16  3.3129704366514210e-16  3.2965240236484200e-16  3.2840080411694439e-16  3.2747405980814837e-16  3.2680980735842492e-16  3.2635200747606069e-16  3.2605141093628346e-16  3.2586589912376743e-16  3.2576061527941979e-16  3.2570782785308563e-16  3.2568650063811847e-16  3.2568158676665573e-16  3.3808124793911944e-15  3.5137356979561901e-15  3.8164721693267347e-15  4.1824710497299225e-15  4.5855066415459793e-15  5.0168300737370344e-15  5.4724121959601200e-15  5.9495520316243280e-15  6.4457357085972867e-15  6.9582680342373811e-15  7.4842823607708281e-15  8.0212437037081782e-15  8.5687717193633848e-15  9.1341611423522380e-15  9.7469671463760200e-15  1.0492014559859139e-14  1.1571387687939466e-14  1.3395134172849956e-14  1.6666504529342298e-14  2.2373186970427420e-14  3.1559488844945783e-14  4.4808434440830946e-14  6.1554598981930805e-14  7.9602597567061582e-14  9.5321294163923793e-14  1.0471330784456507e-13  1.0499009544930496e-13  9.5821094003905209e-14  7.9505736602492735e-14  5.9959454725685328e-14  4.1130391849809065e-14  2.5719242444810730e-14  1.4732522639033757e-14  7.8150886369838605e-15  3.9322727336065953e-15  1.9730629463384552e-15  1.0749473946822953e-15  6.9382425976740212e-16  5.3804207495201486e-16  4.7158001637169793e-16  4.3831530826314650e-16  4.1741142008412837e-16  4.0172288451033631e-16  3.8886383277863891e-16  3.7797268141632291e-16  3.6866121852174407e-16  3.6069786481174373e-16  3.5391336435107543e-16  3.4816990805969648e-16  3.4334869396565760e-16  3.3934367332568467e-16  3.3605795938482985e-16  3.3340169348466998e-16  3.3129084364481684e-16  3.2964665006325127e-16  3.2839553080112167e-16  3.2746930464827044e-16  3.2680560743249494e-16  3.2634838698098417e-16  3.2604836865269252e-16  3.2586339334834946e-16  3.2575854746322454e-16  3.2570603282810707e-16  3.2568476631195687e-16  3.2567975192584938e-16  3.3804200536552921e-15  3.5114684430804203e-15  3.8146804556030248e-15  4.1816464946809873e-15  4.5851264620485427e-15  5.0165935846382543e-15  5.4722076284235028e-15  5.9493575629055496e-15  6.4456415548239594e-15  6.9588072908934328e-15  7.4880273733874650e-15  8.0394125497661104e-15  8.6454233661841001e-15  9.4243783773634074e-15  1.0738363015023032e-14  1.3550049685746073e-14  2.0089706789429572e-14  3.4824612632058960e-14  6.5359861475166168e-14  1.2232789948635663e-13  2.1695594168719969e-13  3.5559503172797769e-13  5.3252034760061394e-13  7.2494269570632060e-13  8.9509462297415846e-13  1.0013772712920112e-12  1.0146527594325450e-12  9.3107607185438790e-13  7.7379801641223599e-13  5.8252731148592494e-13  3.9734243291519080e-13  2.4566949770834298e-13  1.3777947127272978e-13  7.0192092968858255e-14  3.2591106787114417e-14  1.3908595033382178e-14  5.5814294406353223e-15  2.2365884230458616e-15  1.0169575099614520e-15  6.0637955723208054e-16  4.7270148944169158e-16  4.2534609231585394e-16  4.0336676640855757e-16  3.8915933097595763e-16  3.7800976847608841e-16  3.6865557589743096e-16  3.6068729207995459e-16  3.5390337379658788e-16  3.4816091162493864e-16  3.4334049413273513e-16  3.3933608900269342e-16  3.3605087900713453e-16  3.3339506148172085e-16  3.3128464511834726e-16  3.2964089839507122e-16  3.2839025681402243e-16  3.2746454599712538e-16  3.2680139717999566e-16  3.2634474047478405e-16  3.2604526842255800e-16  3.2586077383025949e-16  3.2575628611084910e-16  3.2570396131484730e-16  3.2568271946646162e-16  3.2567765546530140e-16  3.3792126234831967e-15  3.5097192959295877e-15  3.8132802678403358e-15  4.1809264552375092e-15  4.5847729454954488e-15  5.0163701387148508e-15  5.4720376771075919e-15  5.9493678448448305e-15  6.4467872636212893e-15  6.9662986788902832e-15  7.5272361509293723e-15  8.2212668643753185e-15  9.4044787020013902e-15  1.2283042179769068e-14  2.0456878267976289e-14  4.3380109687043612e-14  1.0276791491015484e-13  2.4178596803177132e-13  5.3335331896518363e-13  1.0785156873466679e-12  1.9826145164051737e-12  3.3030125537730163e-12  4.9815052270171550e-12  6.7989747299584651e-12  8.3975010799799043e-12  9.3870641019359881e-12  9.4985277111141387e-12  8.7018782465256103e-12  7.2191557708604870e-12  5.4245481290950070e-12  3.6925980192014699e-12  2.2776272177636970e-12  1.2732608572110670e-12  6.4531255795309558e-13  2.9666310907124351e-13  1.2384466614080358e-13  4.7084565365483945e-14  1.6447187512859771e-14  5.4306461872763945e-15  1.8500701849052815e-15  7.9067662060658501e-16  4.9910829141651202e-16  4.1888271684224144e-16  3.9210947632503583e-16  3.7850834384925242e-16  3.6872285784761869e-16  3.6068721122234723e-16  3.5389476640542290e-16  3.4815208781598540e-16  3.4333231850940238e-16  3.3932851098874022e-16  3.3604380206574720e-16  3.3338843181262690e-16  3.3127844798344558e-16  3.2963514676393647e-16  3.2838498009133201e-16  3.2745977829243197e-16  3.2679716412397255e-16  3.2634104424451117e-16  3.2604207239218736e-16  3.2585799165018835e-16  3.2575378440056834e-16  3.2570158677981718e-16  3.2568035204935042e-16  3.2567526085877880e-16  3.3778724949959012e-15  3.5082840799921074e-15  3.8121662850363196e-15  4.1803071588771843e-15  4.5844502290727876e-15  5.0161901475879741e-15  5.4721346764954594e-15  5.9511704402505011e-15  6.4590506612832304e-15  7.0363908383456354e-15  7.8849687478771976e-15  9.8660967903284869e-15  1.6228130865641393e-14  3.7833341699994051e-14  1.0682115496483765e-13  3.0695781929414569e-13  8.2922427638103601e-13  2.0503692304998971e-12  4.6015957333949236e-12  9.3490253873094209e-12  1.7182360355408129e-11  2.8563475576737577e-11  4.2953898795717097e-11  5.8444604082863169e-11  7.1967248624590147e-11  8.0218393458100641e-11  8.0957851993274193e-11  7.3991710974356193e-11  6.1254017768058299e-11  4.5940653205686512e-11  3.1221251751638745e-11  1.9229599306029202e-11  1.0735727209602427e-11  5.4338795579839154e-12  2.4939679024748344e-12  1.0382190232053927e-12  3.9220628479994821e-13  1.3461566658203023e-13  4.2140344642493298e-14  1.2198670082205200e-14  3.4384388614250714e-15  1.1140694301972098e-15  5.4855345205917711e-16  4.1692906745426256e-16  3.8281334214282409e-16  3.6939227322790139e-16  3.6077374677805088e-16  3.5389750262720811e-16  3.4814462270668139e-16  3.4332429569468436e-16  3.3932095198824541e-16  3.3603672969502838e-16  3.3338180444560643e-16  3.3127225167667351e-16  3.2962939336014519e-16  3.2837969598956436e-16  3.2745499142201661e-16  3.2679288927327747e-16  3.2633726759693478e-16  3.2603873861416431e-16  3.2585500009023651e-16  3.2575100255001244e-16  3.2569888462512876e-16  3.2567764630688858e-16  3.2567253789749494e-16  3.3766211149212348e-15  3.5070827227937391e-15  3.8112610981249929e-15  4.1797769383481702e-15  4.5841887443441224e-15  5.0163121045052226e-15  5.4744036115654733e-15  5.9677787304384374e-15  6.5631994567165486e-15  7.6214709154580941e-15  1.0846756147373224e-14  2.3392096387610299e-14  7.1972444865191929e-14  2.4519446072336224e-13  8.0318395193584171e-13  2.4186312921894243e-12  6.6130615683396712e-12  1.6363312943285614e-11  3.6612492733624392e-11  7.4071981343332437e-11  1.3552623681864558e-10  2.2430914098720955e-10  3.3592429459595636e-10  4.5532504448605611e-10  5.5872320460473114e-10  6.2082536752042320e-10  6.2479160897882062e-10  5.6961638273846015e-10  4.7053678292095242e-10  3.5224531738852927e-10  2.3900633197161603e-10  1.4701250067765338e-10  8.1987022375733086e-11  4.1461560162918159e-11  1.9016024235775133e-11  7.9110667455135697e-12  2.9858819227034854e-12  1.0227210432522892e-12  3.1810292607172532e-13  9.0028229682618008e-14  2.3364701288368013e-14  5.7461918115835847e-15  1.5264670160066671e-15  6.0446188294305911e-16  4.1548185471460172e-16  3.7455626938415473e-16  3.6150802606260815e-16  3.5398518893255290e-16  3.4814730763247355e-16  3.4331738244077879e-16  3.3931350693869134e-16  3.3602967036810042e-16  3.3337517958148290e-16  3.3126605472194574e-16  3.2962363438311428e-16  3.2837439635223390e-16  3.2745017009024095e-16  3.2678854751033260e-16  3.2633337472549623e-16  3.2603522359768451e-16  3.2585175542605760e-16  3.2574790514836186e-16  3.2569583015962739e-16  3.2567458029628771e-16  3.2566945901424220e-16  3.3755168984190780e-15  3.5060641329346841e-15  3.8105090329797862e-15  4.1793583260245675e-15  4.5842492656268687e-15  5.0186491624889372e-15  5.4931045334655804e-15  6.0968756186960127e-15  7.3616730535383155e-15  1.2068826211949966e-14  3.3187627535275174e-14  1.2465119870476266e-13  4.8614807236038387e-13  1.7743254529559113e-12  5.9003758704504783e-12  1.7763985705447406e-11  4.8350690524488321e-11  1.1896066385094923e-10  2.6462427991599113e-10  5.3236627495923896e-10  9.6890957645470607e-10  1.5958121426841921e-09  2.3792057733303272e-09  3.2118122160805497e-09  3.9268318490092746e-09  4.3491558161905466e-09  4.3644127326570875e-09  3.9690333474395812e-09  3.2715607968076748e-09  2.4445797974776610e-09  1.6561344799896175e-09  1.0173933528466401e-09  5.6681518763996095e-10  2.8642398300942098e-10  1.3129507562978904e-10  5.4602902784284763e-11  2.0604967259978246e-11  7.0564579631581737e-12  2.1935938931616050e-12  6.1925323381426329e-13  1.5895909511274643e-13  3.7296859144370526e-14  8.1951910555430199e-15  1.8851993971136002e-15  6.3903670650878003e-16  4.1002858232197854e-16  3.6662018554553873e-16  3.5464848572261649e-16  3.4821893459794073e-16  3.4331800120536900e-16  3.3930681602132901e-16  3.3602268197881232e-16  3.3336856082088328e-16  3.3125985441457445e-16  3.2961786331420776e-16  3.2836906886454376e-16  3.2744529373198477e-16  3.2678410849433793e-16  3.2632932648941272e-16  3.2603148389253457e-16  3.2584821683904716e-16  3.2574445948881387e-16  3.2569239825165999e-16  3.2567113022137899e-16  3.2566599780232671e-16  3.3745319392219079e-15  3.5051969961605201e-15  3.8099519392046057e-15  4.1793143638634736e-15  4.5862010311087464e-15  5.0361010557451798e-15  5.6270746446316770e-15  7.0104587458784701e-15  1.2955652355642904e-14  4.2947554193976669e-14  1.8695566170682067e-13  8.1551454991532559e-13  3.2872536451746967e-12  1.2026470916060092e-11  3.9785386450498373e-11  1.1894076736382915e-10  3.2138368541500629e-10  7.8514294574968881e-10  1.7348800500771670e-09  3.4685475746976701e-09  6.2767483559499885e-09  1.0284152427662171e-08  1.5260631636110588e-08  2.0514280938345029e-08  2.4987148393340195e-08  2.7582860811098003e-08  2.7599433549241237e-08  2.5036139280794500e-08  2.0592189620225258e-08  1.5358977302260678e-08  1.0389617047364211e-08  6.3747705039668816e-09  3.5481843695889370e-09  1.7917311881840640e-09  8.2094432224563889e-10  3.4133410849196031e-10  1.2880269940624230e-10  4.4117292924290427e-11  1.3718285575620901e-11  3.8733565733426847e-12  9.9341182953848127e-13  2.3166856666832006e-13  4.9332205144589252e-14  9.7979361530082555e-15  2.0228005395150031e-15  6.3011984273323521e-16  3.9846753525379361e-16  3.5883730636313904e-16  3.4871423179863223e-16  3.4336506426374196e-16  3.3930477734735506e-16  3.3601612074014144e-16  3.3336197569861571e-16  3.3125364784660511e-16  3.2961207043109160e-16  3.2836369675620351e-16  3.2744033685592750e-16  3.2677953777833068e-16  3.2632508188689846e-16  3.2602747698732054e-16  3.2584434606446568e-16  3.2574063462880311e-16  3.2568856345501896e-16  3.2566727149264659e-16  3.2566212844071566e-16  3.3737193675797424e-15  3.5046609555668895e-15  3.8098678653100714e-15  4.1804479210891975e-15  4.5992214430915762e-15  5.1528310586402377e-15  6.5095089230167443e-15  1.2939983421858908e-14  4.8866287956794830e-14  2.3918171151627614e-13  1.1542022602939581e-12  5.1164794855809714e-12  2.0546738780300058e-11  7.4561306152926971e-11  2.4445801516816184e-10  7.2436641420412105e-10  1.9407553497369541e-09  4.7037418686417012e-09  1.0317342767456815e-08  2.0488855528002500e-08  3.6850737109916450e-08  6.0046228390402541e-08  8.8664451025363701e-08  1.1866803407342713e-07  1.4398596714970345e-07  1.5840858978413635e-07  1.5804104460500237e-07  1.4300353006914509e-07  1.1736994403218522e-07  8.7386418470108811e-08  5.9026762430266076e-08  3.6175264747881523e-08  2.0117395515880041e-08  1.0152417894203111e-08  4.6499389743647264e-09  1.9330826937384307e-09  7.2950564800373117e-10  2.4994086722729986e-10  7.7756964544662416e-11  2.1968937091268058e-11  5.6382218060463433e-12  1.3149094300915862e-12  2.7892455113376699e-13  5.4036391923252987e-14  9.7747984585550810e-15  1.8660394385515732e-15  5.7783723529338471e-16  3.8254364378777804e-16  3.5156393901234444e-16  3.4367135645279136e-16  3.3932882531476102e-16  3.3601196170565193e-16  3.3335558737799513e-16  3.3124744014430818e-16  3.2960624304838675e-16  3.2835825886076800e-16  3.2743526967058718e-16  3.2677479793971122e-16  3.2632059918474567e-16  3.2602316178027205e-16  3.2584010702894888e-16  3.2573640089652839e-16  3.2568430023147897e-16  3.2566297926194707e-16  3.2565782550397537e-16  3.3738162886622350e-15  3.5046160266251194e-15  3.8095071000143513e-15  4.1866448940232865e-15  4.6849723492795661e-15  5.8819004012282836e-15  1.1851160773443146e-14  4.8324042049174384e-14  2.6074223438844778e-13  1.3833018169460304e-12  6.7245567450481397e-12  2.9581447484108408e-11  1.1753587030627181e-10  4.2184451094842590e-10  1.3682871520427634e-09  4.0132574878853240e-09  1.0650345971435441e-08  2.5586486644524983e-08  5.5672824627913685e-08  1.0975791825863173e-07  1.9612483999849087e-07  3.1772435795302392e-07  4.6674922798791392e-07  6.2188081765636954e-07  7.5159113568345962e-07  8.2405510375961232e-07  8.1973183107446205e-07  7.3988325848942754e-07  6.0598442265567235e-07  4.5039682884004476e-07  3.0380342012471361e-07  1.8598659513139945e-07  1.0334556446626456e-07  5.2126097456532250e-08  2.3867510803465161e-08  9.9217311702426554e-09  3.7449131178122834e-09  1.2835790495089392e-09  3.9956868602069117e-10  1.1298495053686441e-10  2.9026676489154350e-11  6.7769423333829453e-12  1.4384951864998530e-12  2.7789587980091129e-13  4.9090349197506047e-14  8.1506120748716521e-15  1.4927203233179088e-15  5.0391879983262475e-16  3.6624606693894813e-16  3.4528696782365000e-16  3.3948539982890934e-16  3.3602009145279974e-16  3.3335023391665558e-16  3.3124128676149095e-16  3.2960036848290477e-16  3.2835273010731723e-16  3.2743005886890916e-16  3.2676984961483473e-16  3.2631583674590785e-16  3.2601849880586131e-16  3.2583546556017645e-16  3.2573172965344655e-16  3.2567958316581924e-16  3.2565822873398506e-16  3.2565306394030241e-16  3.3740079688742747e-15  3.5012400260617063e-15  3.8071074057554614e-15  4.2418904428698782e-15  5.2188000991447946e-15  1.0025186609265255e-14  4.1635433397757529e-14  2.4349457542911339e-13  1.4138893034525836e-12  7.5189501018173579e-12  3.6152894195381511e-11  1.5693315257655606e-10  6.1518021843846714e-10  2.1791722902869735e-09  6.9808640683900906e-09  2.0238585422482637e-08  5.3137443118164140e-08  1.2642228485735366e-07  2.7268084005179507e-07  5.3340143442484860e-07  9.4655060908307228e-07  1.5240992123123570e-06  2.2270352726639625e-06  2.9534621320804809e-06  3.5551557399326065e-06  3.8844708277007614e-06  3.8527261141019159e-06  3.4688136271578303e-06  2.8351911921123447e-06  2.1037024983971740e-06  1.4170990460110304e-06  8.6665384829733152e-07  4.8121557410977039e-07  2.4260814337001683e-07  1.1106342275795764e-07  4.6171198541980874e-08  1.7432008113973275e-08  5.9779232673959691e-09  1.8622618998769597e-09  5.2709881079653599e-10  1.3557912851859018e-10  3.1699455389327244e-11  6.7392169772214682e-12  1.3034312490656924e-12  2.2965400132969407e-13  3.7097891360379766e-14  5.7210499158315724e-15  1.0671182432469280e-15  4.3471439105595739e-16  3.5288817245563001e-16  3.4025188808511698e-16  3.3608523740560503e-16  3.3334976436401780e-16  3.3123548069000935e-16  3.2959444808111600e-16  3.2834708296013146e-16  3.2742466851011647e-16  3.2676465239368404e-16  3.2631075362004826e-16  3.2601345033221321e-16  3.2583038918130382e-16  3.2572659319963831e-16  3.2567438715310421e-16  3.2565299537886675e-16  3.2564781912469623e-16  3.3594900546327684e-15  3.4894940053795410e-15  3.8482844829858743e-15  4.6281026143638838e-15  8.0465359558182625e-15  3.1594112543326357e-14  1.9646441092217285e-13  1.2445300890639928e-12  7.2234513507534451e-12  3.7867383881783557e-11  1.7910227369506942e-10  7.6467831037382743e-10  2.9495828515067026e-09  1.0289005531265207e-08  3.2490195022650787e-08  9.2959245136247401e-08  2.4116969385005371e-07  5.6767186228027704e-07  1.2128367322607338e-06  2.3526947974868220e-06  4.1444747042498853e-06  6.6307460606314229e-06  9.6353706292525541e-06  1.2717311735362957e-05  1.5245457368655914e-05  1.6599514927504947e-05  1.6415313214670537e-05  1.4743165171521071e-05  1.2025708594943094e-05  8.9084588128834228e-06  5.9932716016114109e-06  3.6618211535583275e-06  2.0319354547724945e-06  1.0240387223894773e-06  4.6874613023200021e-07  1.9489604523291342e-07  7.3612352413670448e-08  2.5259781136244127e-08  7.8759120635375781e-09  2.2317223846572217e-09  5.7483132371321858e-10  1.3462185477574432e-10  2.8675220292785145e-11  5.5577422353103945e-12  9.8082039471410493e-13  1.5791742860287293e-13  2.3436454495616429e-14  3.4372454204378143e-15  7.2437019763491320e-16  3.8526438415832