<?xml version="1.0"?>
<VTKFile type="UnstructuredGrid"  version="0.1"  >
<UnstructuredGrid>
<Piece  NumberOfPoints="4225" NumberOfCells="8192">
<Points>
<DataArray  type="Float64"  NumberOfComponents="3"  format="ascii">0 0 0  0.015625 0 0  0.03125 0 0  0.046875 0 0  0.0625 0 0  0.078125 0 0  0.09375 0 0  0.109375 0 0  0.125 0 0  0.140625 0 0  0.15625 0 0  0.171875 0 0  0.1875 0 0  0.203125 0 0  0.21875 0 0  0.234375 0 0  0.25 0 0  0.265625 0 0  0.28125 0 0  0.296875 0 0  0.3125 0 0  0.328125 0 0  0.34375 0 0  0.359375 0 0  0.375 0 0  0.390625 0 0  0.40625 0 0  0.421875 0 0  0.4375 0 0  0.453125 0 0  0.46875 0 0  0.484375 0 0  0.5 0 0  0.515625 0 0  0.53125 0 0  0.546875 0 0  0.5625 0 0  0.578125 0 0  0.59375 0 0  0.609375 0 0  0.625 0 0  0.640625 0 0  0.65625 0 0  0.671875 0 0  0.6875 0 0  0.703125 0 0  0.71875 0 0  0.734375 0 0  0.75 0 0  0.765625 0 0  0.78125 0 0  0.796875 0 0  0.8125 0 0  0.828125 0 0  0.84375 0 0  0.859375 0 0  0.875 0 0  0.890625 0 0  0.90625 0 0  0.921875 0 0  0.9375 0 0  0.953125 0 0  0.96875 0 0  0.984375 0 0  1 0 0  0 0.015625 0  0.015625 0.015625 0  0.03125 0.015625 0  0.046875 0.015625 0  0.0625 0.015625 0  0.078125 0.015625 0  0.09375 0.015625 0  0.109375 0.015625 0  0.125 0.015625 0  0.140625 0.015625 0  0.15625 0.015625 0  0.171875 0.015625 0  0.1875 0.015625 0  0.203125 0.015625 0  0.21875 0.015625 0  0.234375 0.015625 0  0.25 0.015625 0  0.265625 0.015625 0  0.28125 0.015625 0  0.296875 0.015625 0  0.3125 0.015625 0  0.328125 0.015625 0  0.34375 0.015625 0  0.359375 0.015625 0  0.375 0.015625 0  0.390625 0.015625 0  0.40625 0.015625 0  0.421875 0.015625 0  0.4375 0.015625 0  0.453125 0.015625 0  0.46875 0.015625 0  0.484375 0.015625 0  0.5 0.015625 0  0.515625 0.015625 0  0.53125 0.015625 0  0.546875 0.015625 0  0.5625 0.015625 0  0.578125 0.015625 0  0.59375 0.015625 0  0.609375 0.015625 0  0.625 0.015625 0  0.640625 0.015625 0  0.65625 0.015625 0  0.671875 0.015625 0  0.6875 0.015625 0  0.703125 0.015625 0  0.71875 0.015625 0  0.734375 0.015625 0  0.75 0.015625 0  0.765625 0.015625 0  0.78125 0.015625 0  0.796875 0.015625 0  0.8125 0.015625 0  0.828125 0.015625 0  0.84375 0.015625 0  0.859375 0.015625 0  0.875 0.015625 0  0.890625 0.015625 0  0.90625 0.015625 0  0.921875 0.015625 0  0.9375 0.015625 0  0.953125 0.015625 0  0.96875 0.015625 0  0.984375 0.015625 0  1 0.015625 0  0 0.03125 0  0.015625 0.03125 0  0.03125 0.03125 0  0.046875 0.03125 0  0.0625 0.03125 0  0.078125 0.03125 0  0.09375 0.03125 0  0.109375 0.03125 0  0.125 0.03125 0  0.140625 0.03125 0  0.15625 0.03125 0  0.171875 0.03125 0  0.1875 0.03125 0  0.203125 0.03125 0  0.21875 0.03125 0  0.234375 0.03125 0  0.25 0.03125 0  0.265625 0.03125 0  0.28125 0.03125 0  0.296875 0.03125 0  0.3125 0.03125 0  0.328125 0.03125 0  0.34375 0.03125 0  0.359375 0.03125 0  0.375 0.03125 0  0.390625 0.03125 0  0.40625 0.03125 0  0.421875 0.03125 0  0.4375 0.03125 0  0.453125 0.03125 0  0.46875 0.03125 0  0.484375 0.03125 0  0.5 0.03125 0  0.515625 0.03125 0  0.53125 0.03125 0  0.546875 0.03125 0  0.5625 0.03125 0  0.578125 0.03125 0  0.59375 0.03125 0  0.609375 0.03125 0  0.625 0.03125 0  0.640625 0.03125 0  0.65625 0.03125 0  0.671875 0.03125 0  0.6875 0.03125 0  0.703125 0.03125 0  0.71875 0.03125 0  0.734375 0.03125 0  0.75 0.03125 0  0.765625 0.03125 0  0.78125 0.03125 0  0.796875 0.03125 0  0.8125 0.03125 0  0.828125 0.03125 0  0.84375 0.03125 0  0.859375 0.03125 0  0.875 0.03125 0  0.890625 0.03125 0  0.90625 0.03125 0  0.921875 0.03125 0  0.9375 0.03125 0  0.953125 0.03125 0  0.96875 0.03125 0  0.984375 0.03125 0  1 0.03125 0  0 0.046875 0  0.015625 0.046875 0  0.03125 0.046875 0  0.046875 0.046875 0  0.0625 0.046875 0  0.078125 0.046875 0  0.09375 0.046875 0  0.109375 0.046875 0  0.125 0.046875 0  0.140625 0.046875 0  0.15625 0.046875 0  0.171875 0.046875 0  0.1875 0.046875 0  0.203125 0.046875 0  0.21875 0.046875 0  0.234375 0.046875 0  0.25 0.046875 0  0.265625 0.046875 0  0.28125 0.046875 0  0.296875 0.046875 0  0.3125 0.046875 0  0.328125 0.046875 0  0.34375 0.046875 0  0.359375 0.046875 0  0.375 0.046875 0  0.390625 0.046875 0  0.40625 0.046875 0  0.421875 0.046875 0  0.4375 0.046875 0  0.453125 0.046875 0  0.46875 0.046875 0  0.484375 0.046875 0  0.5 0.046875 0  0.515625 0.046875 0  0.53125 0.046875 0  0.546875 0.046875 0  0.5625 0.046875 0  0.578125 0.046875 0  0.59375 0.046875 0  0.609375 0.046875 0  0.625 0.046875 0  0.640625 0.046875 0  0.65625 0.046875 0  0.671875 0.046875 0  0.6875 0.046875 0  0.703125 0.046875 0  0.71875 0.046875 0  0.734375 0.046875 0  0.75 0.046875 0  0.765625 0.046875 0  0.78125 0.046875 0  0.796875 0.046875 0  0.8125 0.046875 0  0.828125 0.046875 0  0.84375 0.046875 0  0.859375 0.046875 0  0.875 0.046875 0  0.890625 0.046875 0  0.90625 0.046875 0  0.921875 0.046875 0  0.9375 0.046875 0  0.953125 0.046875 0  0.96875 0.046875 0  0.984375 0.046875 0  1 0.046875 0  0 0.0625 0  0.015625 0.0625 0  0.03125 0.0625 0  0.046875 0.0625 0  0.0625 0.0625 0  0.078125 0.0625 0  0.09375 0.0625 0  0.109375 0.0625 0  0.125 0.0625 0  0.140625 0.0625 0  0.15625 0.0625 0  0.171875 0.0625 0  0.1875 0.0625 0  0.203125 0.0625 0  0.21875 0.0625 0  0.234375 0.0625 0  0.25 0.0625 0  0.265625 0.0625 0  0.28125 0.0625 0  0.296875 0.0625 0  0.3125 0.0625 0  0.328125 0.0625 0  0.34375 0.0625 0  0.359375 0.0625 0  0.375 0.0625 0  0.390625 0.0625 0  0.40625 0.0625 0  0.421875 0.0625 0  0.4375 0.0625 0  0.453125 0.0625 0  0.46875 0.0625 0  0.484375 0.0625 0  0.5 0.0625 0  0.515625 0.0625 0  0.53125 0.0625 0  0.546875 0.0625 0  0.5625 0.0625 0  0.578125 0.0625 0  0.59375 0.0625 0  0.609375 0.0625 0  0.625 0.0625 0  0.640625 0.0625 0  0.65625 0.0625 0  0.671875 0.0625 0  0.6875 0.0625 0  0.703125 0.0625 0  0.71875 0.0625 0  0.734375 0.0625 0  0.75 0.0625 0  0.765625 0.0625 0  0.78125 0.0625 0  0.796875 0.0625 0  0.8125 0.0625 0  0.828125 0.0625 0  0.84375 0.0625 0  0.859375 0.0625 0  0.875 0.0625 0  0.890625 0.0625 0  0.90625 0.0625 0  0.921875 0.0625 0  0.9375 0.0625 0  0.953125 0.0625 0  0.96875 0.0625 0  0.984375 0.0625 0  1 0.0625 0  0 0.078125 0  0.015625 0.078125 0  0.03125 0.078125 0  0.046875 0.078125 0  0.0625 0.078125 0  0.078125 0.078125 0  0.09375 0.078125 0  0.109375 0.078125 0  0.125 0.078125 0  0.140625 0.078125 0  0.15625 0.078125 0  0.171875 0.078125 0  0.1875 0.078125 0  0.203125 0.078125 0  0.21875 0.078125 0  0.234375 0.078125 0  0.25 0.078125 0  0.265625 0.078125 0  0.28125 0.078125 0  0.296875 0.078125 0  0.3125 0.078125 0  0.328125 0.078125 0  0.34375 0.078125 0  0.359375 0.078125 0  0.375 0.078125 0  0.390625 0.078125 0  0.40625 0.078125 0  0.421875 0.078125 0  0.4375 0.078125 0  0.453125 0.078125 0  0.46875 0.078125 0  0.484375 0.078125 0  0.5 0.078125 0  0.515625 0.078125 0  0.53125 0.078125 0  0.546875 0.078125 0  0.5625 0.078125 0  0.578125 0.078125 0  0.59375 0.078125 0  0.609375 0.078125 0  0.625 0.078125 0  0.640625 0.078125 0  0.65625 0.078125 0  0.671875 0.078125 0  0.6875 0.078125 0  0.703125 0.078125 0  0.71875 0.078125 0  0.734375 0.078125 0  0.75 0.078125 0  0.765625 0.078125 0  0.78125 0.078125 0  0.796875 0.078125 0  0.8125 0.078125 0  0.828125 0.078125 0  0.84375 0.078125 0  0.859375 0.078125 0  0.875 0.078125 0  0.890625 0.078125 0  0.90625 0.078125 0  0.921875 0.078125 0  0.9375 0.078125 0  0.953125 0.078125 0  0.96875 0.078125 0  0.984375 0.078125 0  1 0.078125 0  0 0.09375 0  0.015625 0.09375 0  0.03125 0.09375 0  0.046875 0.09375 0  0.0625 0.09375 0  0.078125 0.09375 0  0.09375 0.09375 0  0.109375 0.09375 0  0.125 0.09375 0  0.140625 0.09375 0  0.15625 0.09375 0  0.171875 0.09375 0  0.1875 0.09375 0  0.203125 0.09375 0  0.21875 0.09375 0  0.234375 0.09375 0  0.25 0.09375 0  0.265625 0.09375 0  0.28125 0.09375 0  0.296875 0.09375 0  0.3125 0.09375 0  0.328125 0.09375 0  0.34375 0.09375 0  0.359375 0.09375 0  0.375 0.09375 0  0.390625 0.09375 0  0.40625 0.09375 0  0.421875 0.09375 0  0.4375 0.09375 0  0.453125 0.09375 0  0.46875 0.09375 0  0.484375 0.09375 0  0.5 0.09375 0  0.515625 0.09375 0  0.53125 0.09375 0  0.546875 0.09375 0  0.5625 0.09375 0  0.578125 0.09375 0  0.59375 0.09375 0  0.609375 0.09375 0  0.625 0.09375 0  0.640625 0.09375 0  0.65625 0.09375 0  0.671875 0.09375 0  0.6875 0.09375 0  0.703125 0.09375 0  0.71875 0.09375 0  0.734375 0.09375 0  0.75 0.09375 0  0.765625 0.09375 0  0.78125 0.09375 0  0.796875 0.09375 0  0.8125 0.09375 0  0.828125 0.09375 0  0.84375 0.09375 0  0.859375 0.09375 0  0.875 0.09375 0  0.890625 0.09375 0  0.90625 0.09375 0  0.921875 0.09375 0  0.9375 0.09375 0  0.953125 0.09375 0  0.96875 0.09375 0  0.984375 0.09375 0  1 0.09375 0  0 0.109375 0  0.015625 0.109375 0  0.03125 0.109375 0  0.046875 0.109375 0  0.0625 0.109375 0  0.078125 0.109375 0  0.09375 0.109375 0  0.109375 0.109375 0  0.125 0.109375 0  0.140625 0.109375 0  0.15625 0.109375 0  0.171875 0.109375 0  0.1875 0.109375 0  0.203125 0.109375 0  0.21875 0.109375 0  0.234375 0.109375 0  0.25 0.109375 0  0.265625 0.109375 0  0.28125 0.109375 0  0.296875 0.109375 0  0.3125 0.109375 0  0.328125 0.109375 0  0.34375 0.109375 0  0.359375 0.109375 0  0.375 0.109375 0  0.390625 0.109375 0  0.40625 0.109375 0  0.421875 0.109375 0  0.4375 0.109375 0  0.453125 0.109375 0  0.46875 0.109375 0  0.484375 0.109375 0  0.5 0.109375 0  0.515625 0.109375 0  0.53125 0.109375 0  0.546875 0.109375 0  0.5625 0.109375 0  0.578125 0.109375 0  0.59375 0.109375 0  0.609375 0.109375 0  0.625 0.109375 0  0.640625 0.109375 0  0.65625 0.109375 0  0.671875 0.109375 0  0.6875 0.109375 0  0.703125 0.109375 0  0.71875 0.109375 0  0.734375 0.109375 0  0.75 0.109375 0  0.765625 0.109375 0  0.78125 0.109375 0  0.796875 0.109375 0  0.8125 0.109375 0  0.828125 0.109375 0  0.84375 0.109375 0  0.859375 0.109375 0  0.875 0.109375 0  0.890625 0.109375 0  0.90625 0.109375 0  0.921875 0.109375 0  0.9375 0.109375 0  0.953125 0.109375 0  0.96875 0.109375 0  0.984375 0.109375 0  1 0.109375 0  0 0.125 0  0.015625 0.125 0  0.03125 0.125 0  0.046875 0.125 0  0.0625 0.125 0  0.078125 0.125 0  0.09375 0.125 0  0.109375 0.125 0  0.125 0.12
[...]
<PointData  Scalars="f_9634"> 
<DataArray  type="Float64"  Name="f_9634"  format="ascii">5.5671982816188728e-18  6.0784901195916629e-18  7.3995856107498469e-18  9.7453799758648279e-18  1.3535467397218741e-17  1.9458014614877933e-17  2.8580439904867228e-17  4.2518635731637562e-17  6.3684079273170099e-17  9.5635037600506123e-17  1.4356504757963071e-16  2.1496871446832077e-16  3.2053080139214688e-16  4.7528572637312419e-16  7.0007579206116042e-16  1.0232523379727172e-15  1.4823129687427230e-15  2.1245971182915675e-15  3.0051921227598380e-15  4.1791488104525288e-15  5.6850497579309886e-15  7.5195981796611816e-15  9.6091104239505905e-15  1.1791490667755446e-14  1.3825503815166120e-14  1.5436569196253672e-14  1.6389848559926228e-14  1.6562246343003273e-14  1.5979797513495817e-14  1.4802465743874517e-14  1.3265558106083154e-14  1.1607391173614182e-14  1.0014030923411820e-14  8.5965562070529854e-15  7.3975165552935890e-15  6.4126422450527342e-15  5.6139830346951147e-15  4.9667826812211134e-15  4.4386447435559158e-15  4.0029418871782997e-15  3.6390806131108089e-15  3.3315357151074737e-15  3.0686645140710946e-15  2.8416878682466736e-15  2.6439171839486495e-15  2.4701957864787073e-15  2.3165010194281799e-15  2.1796607001166196e-15  2.0571499401567229e-15  1.9469447650386534e-15  1.8474164513127965e-15  1.7572556028350486e-15  1.6754183844684462e-15  1.6010895091012755e-15  1.5336578255090539e-15  1.4727008346916912e-15  1.4179742446650965e-15  1.3694018146929554e-15  1.3270593475396036e-15  1.2911449915417275e-15  1.2619264424980829e-15  1.2396550074829926e-15  1.2244386237762465e-15  1.2160750896061921e-15  1.2138716512882235e-15  5.6398922976667298e-18  6.1008084623086963e-18  7.4323380136714310e-18  9.7991205064658512e-18  1.3619257054074140e-17  1.9585129680911828e-17  2.8770359305999871e-17  4.2799301070049903e-17  6.4095213297576433e-17  9.6234069405317534e-17  1.4444119080519150e-16  2.1628480828844178e-16  3.2265645701486030e-16  4.7920497655830328e-16  7.0852864874196441e-16  1.0435824339588232e-15  1.5326658797675675e-15  2.2454033160934823e-15  3.2765256636593104e-15  4.7400901751103538e-15  6.7436900502730584e-15  9.3359420466022984e-15  1.2436095866633297e-14  1.5778166274921694e-14  1.8916164032935031e-14  2.1320349471255349e-14  2.2544146782995967e-14  2.2387419736847204e-14  2.0969150778889447e-14  1.8669638183254354e-14  1.5977985502031031e-14  1.3328868239546080e-14  1.1002330414999339e-14  9.1093697736810743e-15  7.6375225372154778e-15  6.5134424506045853e-15  5.6514660503034056e-15  4.9786349350829299e-15  4.4413527551672596e-15  4.0028711811453622e-15  3.6383848228627712e-15  3.3308329090026889e-15  3.0680851642209531e-15  2.8412322040219160e-15  2.6435606931028824e-15  2.4699150932857672e-15  2.3162781117536999e-15  2.1794823670416782e-15  2.0570066048435934e-15  1.9468295277812110e-15  1.8473244002047053e-15  1.7571833207106486e-15  1.6753635760413836e-15  1.6010506822481301e-15  1.5336339676877054e-15  1.4726910306040967e-15  1.4179771878822328e-15  1.3694151697429169e-15  1.3270788852637865e-15  1.2911632408989365e-15  1.2619300589770580e-15  1.2396189470372090e-15  1.2243139899784795e-15  1.2157689715339730e-15  1.2132287789891937e-15  5.6890832963827125e-18  6.1330571254669429e-18  7.4674116507823779e-18  9.8534979175483893e-18  1.3703555247813170e-17  1.9712967134134755e-17  2.8961467061926688e-17  4.3082511929557946e-17  6.4515135269737884e-17  9.6873728381090002e-17  1.4551364734063398e-16  2.1850220883078106e-16  3.2859775453646811e-16  4.9785429383411487e-16  7.6859343905654494e-16  1.2277017682818666e-15  2.0533105220057516e-15  3.5873680276453229e-15  6.4145881519811621e-15  1.1384617801264884e-14  1.9472475764142738e-14  3.1389254237022909e-14  4.6987514352541228e-14  6.4728618238782354e-14  8.1631263361652015e-14  9.3991283745148521e-14  9.8715090238135999e-14  9.4621169160084556e-14  8.2957402091121268e-14  6.6820691196613819e-14  4.9842849821383694e-14  3.4899810221504106e-14  2.3450323014985217e-14  1.5619215096846099e-14  1.0723477837650016e-14  7.8395717503989674e-15  6.1678472482247474e-15  5.1604903303241109e-15  4.4989124542976558e-15  4.0188992705764412e-15  3.6419914741857445e-15  3.3311787311320111e-15  3.0677395996297983e-15  2.8408246056361712e-15  2.6432135733701774e-15  2.4696363139851323e-15  2.3160557331428700e-15  2.1793042779985701e-15  2.0568634263607293e-15  1.9467144028446818e-15  1.8472324306415981e-15  1.7571110943429977e-15  1.6753087970244999e-15  1.6010118527938444e-15  1.5336100647285357e-15  1.4726811240551364e-15  1.4179799479159230e-15  1.3694281865025731e-15  1.3270976061095554e-15  1.2911789946367990e-15  1.2619260809687907e-15  1.2395633731643954e-15  1.2241527199571845e-15  1.2154364677698077e-15  1.2127293481089178e-15  5.7287077449448359e-18  6.1673658532726409e-18  7.5051110791722924e-18  9.9088191063280816e-18  1.3788590473804778e-17  1.9841912460167119e-17  2.9155058872318847e-17  4.3377155504201769e-17  6.5002287552850048e-17  9.7893286645591889e-17  1.4855952242229713e-16  2.3005358606881340e-16  3.7455929353852236e-16  6.7176166059065821e-16  1.3732855112022387e-15  3.1388639352615669e-15  7.5240743761561435e-15  1.7753147335229548e-14  3.9579264221410569e-14  8.1576083599845815e-14  1.5376512695437967e-13  2.6366000929823458e-13  4.1018675492548693e-13  5.7824251550476518e-13  7.3819764809908249e-13  8.5326711728612136e-13  8.9304901808652729e-13  8.4657298180297670e-13  7.2723579150929609e-13  5.6660145678794070e-13  4.0095529814788536e-13  2.5837263135173291e-13  1.5235815781641236e-13  8.3039119130976324e-14  4.2708236830933013e-14  2.1610010975733714e-14  1.1550645916166231e-14  7.0716613049733807e-15  5.1153069178667375e-15  4.1992906253642813e-15  3.6896406369571651e-15  3.3422895056450612e-15  3.0697978701400834e-15  2.8409085520419488e-15  2.6429589276015000e-15  2.4693737639436547e-15  2.3158361574085569e-15  2.1791267670850625e-15  2.0567204501392008e-15  1.9465993957776368e-15  1.8471405429664398e-15  1.7570389232510215e-15  1.6752540464791310e-15  1.6009730194687392e-15  1.5335861157312684e-15  1.4726711129778940e-15  1.4179824980637344e-15  1.3694407016849673e-15  1.3271148818455088e-15  1.2911905943861484e-15  1.2619118340589399e-15  1.2394881613390221e-15  1.2239680719265845e-15  1.2151074061294853e-15  1.2123033114154346e-15  5.7637487085381689e-18  6.2015597547379820e-18  7.5446865805664344e-18  9.9657328649843192e-18  1.3875017199741994e-17  1.9972967935020264e-17  2.9362095280233151e-17  4.3770192390308370e-17  6.6116685380871975e-17  1.0252758809558921e-16  1.7052625260800129e-16  3.3127165350788637e-16  8.0470011246702327e-16  2.3334015037095968e-15  7.1849038206962768e-15  2.1519982303914529e-14  6.0076717279176712e-14  1.5355723359446664e-13  3.5676843710840557e-13  7.5118904559494235e-13  1.4315452146641938e-12  2.4678753739170384e-12  3.8478889849686374e-12  5.4262295185141387e-12  6.9213280843545238e-12  7.9866612701346195e-12  8.3390690779613019e-12  7.8805956618139818e-12  6.7425494834001240e-12  5.2248541869947432e-12  3.6686802935075905e-12  2.3356084287368804e-12  1.3494236560860161e-12  7.0868896120989368e-13  3.3941913779898605e-13  1.4935764962487681e-13  6.1512954564086772e-14  2.4833273630628377e-14  1.0858797339944192e-14  5.8898140905990344e-15  4.1427334639975545e-15  3.4527499717402291e-15  3.0941092249288947e-15  2.8455574551824068e-15  2.6435641269940127e-15  2.4692605297364586e-15  2.3156407102718456e-15  2.1789530056751362e-15  2.0565781161551092e-15  1.9464845637024638e-15  1.8470487438580419e-15  1.7569668076550191e-15  1.6751993237492415e-15  1.6009341817466631e-15  1.5335621193293087e-15  1.4726609827734809e-15  1.4179847553196397e-15  1.3694524074902009e-15  1.3271299023346168e-15  1.2911966024331407e-15  1.2618862536365921e-15  1.2393960500568878e-15  1.2237703075248968e-15  1.2147901143257083e-15  1.2119216127861754e-15  5.7960115168477659e-18  6.2357353504769570e-18  7.5866770052536491e-18  1.0024545221129810e-17  1.3961770732208189e-17  2.0116272005050682e-17  2.9691597389135895e-17  4.5026896168912938e-17  7.2699907838416023e-17  1.3875711400851947e-16  3.5782849985697209e-16  1.2143919299813348e-15  4.5762908201757187e-15  1.6899633320906422e-14  5.8034637420307386e-14  1.8195022727580757e-13  5.1750634492840551e-13  1.3322693817758122e-12  3.1018418101470806e-12  6.5293645894065586e-12  1.2425568796026575e-11  2.1378316134409206e-11  3.3257373534219153e-11  4.6786921565101878e-11  5.9533818010266223e-11  6.8533113684542469e-11  7.1390827946962961e-11  6.7314689528680427e-11  5.7469228932414688e-11  4.4439028317115428e-11  3.1135631804987783e-11  1.9773970694585888e-11  1.1388863658973816e-11  5.9521534887017672e-12  2.8251126663103491e-12  1.2194853178303446e-12  4.8016111307827314e-13  1.7376612660322550e-13  5.9076352555247308e-14  2.0109503023503044e-14  7.9665170681614749e-15  4.3913360300622964e-15  3.3045269247186530e-15  2.8885403658486776e-15  2.6514246040321706e-15  2.4704131239473575e-15  2.3156497774684149e-15  2.1788100972850165e-15  2.0564402350852225e-15  1.9463704115981218e-15  1.8469570966581679e-15  1.7568947547789882e-15  1.6751446292998388e-15  1.6008953388420404e-15  1.5335380682579397e-15  1.4726506932744169e-15  1.4179865696622676e-15  1.3694628946827916e-15  1.3271418617691742e-15  1.2911960591565078e-15  1.2618494857361891e-15  1.2392904897661108e-15  1.2235661636290499e-15  1.2144863348184088e-15  1.2115707134151571e-15  5.8296416057850563e-18  6.2721301488562316e-18  7.6291352784185298e-18  1.0078371844787947e-17  1.4055542229560315e-17  2.0393028315766569e-17  3.1014632446582131e-17  5.3098006015837960e-17  1.2269778683261577e-16  4.2589105603519398e-16  1.8546408444485905e-15  8.2718468629490108e-15  3.4654984949377516e-14  1.3275462315916656e-13  4.6129069280754527e-13  1.4503323032487838e-12  4.1227094384148383e-12  1.0592827994087670e-11  2.4599913008914909e-11  5.1637445937029526e-11  9.7981663440468239e-11  1.6808522034512782e-10  2.6072874821556866e-10  3.6576838595118554e-10  4.6416983245224809e-10  5.3297715974197840e-10  5.5388528521012168e-10  5.2112250482110756e-10  4.4402576421789077e-10  3.4274794940412974e-10  2.3977342020979278e-10  1.5207590568598697e-10  8.7486705337815293e-11  4.5672576025475259e-11  2.1649153135592628e-11  9.3237910158731686e-12  3.6519184772154473e-12  1.3029931536428587e-12  4.2511328183238303e-13  1.2824251642476986e-13  3.7113044180319940e-14  1.1569425355917030e-14  4.9222866949543190e-15  3.2227221444334149e-15  2.7147064368070860e-15  2.4813002636391556e-15  2.3172435880011790e-15  2.1789076680647342e-15  2.0563366730845736e-15  1.9462609637894279e-15  1.8468661190772768e-15  1.7568228287038375e-15  1.6750899703777722e-15  1.6008564881626445e-15  1.5335139436476887e-15  1.4726401719839536e-15  1.4179877337496833e-15  1.3694717157604474e-15  1.3271500834912685e-15  1.2911885004800168e-15  1.2618023863422840e-15  1.2391747240404082e-15  1.2233598914989068e-15  1.2141958721976484e-15  1.2112434864575518e-15  5.8692430348734438e-18  6.3039571023968348e-18  7.6554538568854600e-18  1.0134400549564384e-17  1.4292376059542453e-17  2.1638972092255623e-17  3.9308051084441192e-17  1.1022316942866473e-16  4.8626095308853891e-16  2.5191005593450575e-15  1.2744551721878092e-14  5.9473925103341326e-14  2.5220656373883583e-13  9.6799533142280244e-13  3.3588183850078142e-12  1.0533086846343251e-11  2.9850256309983580e-11  7.6448952379352545e-11  1.7695187730171569e-10  3.7020618529821456e-10  7.0015720348740031e-10  1.1972436976112480e-09  1.8513524467712576e-09  2.5894754497832231e-09  3.2768658912427861e-09  3.7527387778733951e-09  3.8905341061589679e-09  3.6524055394233048e-09  3.1060200726924990e-09  2.3935408268090951e-09  1.6720702823400485e-09  1.0593087227817127e-09  6.0888580495673957e-10  3.1768922296283244e-10  1.5054024209450443e-10  6.4825594706260391e-11  2.5385722619088422e-11  9.0482990600527559e-12  2.9393082931515247e-12  8.7240683901054207e-13  2.3820180867241318e-13  6.1252338130433493e-14  1.6166198440830556e-14  5.5587165633301617e-15  3.1613354461243570e-15  2.5600319044702168e-15  2.3299840907393178e-15  2.1807150773292926e-15  2.0564797822487252e-15  1.9461853327466033e-15  1.8467796364321810e-15  1.7567515166955375e-15  1.6750354063689789e-15  1.6008176284763543e-15  1.5334897117503560e-15  1.4726293148147080e-15  1.4179880041183306e-15  1.3694784414669740e-15  1.3271540764842072e-15  1.2911738689443828e-15  1.2617461461999114e-15  1.2390515051187804e-15  1.2231541797491176e-15  1.2139180385436645e-15  1.2109357340701228e-15  5.8785642039623069e-18  6.3039682629974065e-18  7.6927483098052761e-18  1.0370118244818852e-17  1.5349969458064229e-17  2.8656242509219200e-17  9.3067689967641097e-17  4.9041690454624095e-16  2.9034462125000798e-15  1.6388344900795132e-14  8.4664509213016809e-14  3.9649272618539709e-13  1.6791204284932619e-12  6.4264057039351973e-12  2.2224294238470841e-11  6.9447185874736247e-11  1.9609435304384111e-10  5.0037081577792398e-10  1.1539367736484870e-09  2.4054451399379781e-09  4.5332096945537872e-09  7.7250172377933034e-09  1.1906249937749139e-08  1.6601306556874839e-08  2.0946972826190706e-08  2.3924399423908605e-08  2.4742229394382101e-08  2.3177123094552917e-08  1.9672323987846295e-08  1.5135191323958111e-08  1.0559082889524087e-08  6.6826936323870717e-09  3.8384751688261752e-09  2.0019804156803276e-09  9.4861276179563456e-10  4.0860976112607505e-10  1.6011022850324374e-10  5.7117754401490975e-11  1.8569231136018041e-11  5.5088774687733927e-12  1.4946227994178322e-12  3.7278015551823237e-13  8.6981480875557297e-14  2.0352520460956270e-14  6.0100724061690160e-15  3.0674716479466347e-15  2.4138855103702904e-15  2.1935745156109750e-15  2.0582409641133814e-15  1.9463350837057969e-15  1.8467233831888451e-15  1.7566841832687463e-15  1.6749813673046250e-15  1.6007787993595498e-15  1.5334653281475017e-15  1.4726179931707769e-15  1.4179871252894073e-15  1.3694826999432508e-15  1.3271535430868232e-15  1.2911523999236259e-15  1.2616820581601425e-15  1.2389230723042675e-15  1.2229507590561750e-15  1.2136520905327656e-15  1.2106447411250407e-15  5.8068045506926084e-18  6.3506891750145931e-18  7.9957965286249408e-18  1.1205366853663710e-17  2.0034287401904568e-17  6.9970823819180605e-17  4.2186843007865616e-16  2.7991912188826166e-15  1.7501806591628451e-14  9.9849107918888774e-14  5.1591047053055175e-13  2.4095872352317537e-12  1.0168485328298918e-11  3.8768755207954354e-11  1.3354385948602338e-10  4.1562595293877817e-10  1.1688325380538675e-09  2.9704434783606994e-09  6.8229504145384826e-09  1.4167114835148065e-08  2.6597360584795516e-08  4.5159140412473764e-08  6.9361109295944371e-08  9.6399010661085814e-08  1.2126808478282135e-07  1.3812622444574378e-07  1.4249709630000079e-07  1.3319463297040026e-07  1.1284314409573252e-07  8.6683317245245282e-08  6.0400528748626758e-08  3.8192224149954373e-08  2.1924844817405951e-08  1.1432525327801069e-08  5.4179142899450928e-09  2.3349462497289843e-09  9.1576870492696404e-10  3.2712859884393755e-10  1.0653716730694073e-10  3.1670356988368553e-11  8.6068708758914428e-12  2.1433155015503901e-12  4.9144012453135073e-13  1.0535944160213080e-13  2.2501648235972368e-14  6.0326763968590327e-15  2.9104225202592848e-15  2.2714107236459418e-15  2.0696738646446711e-15  1.9478584541675608e-15  1.8468553367383389e-15  1.7566420545662463e-15  1.6749306676056141e-15  1.6007403516731890e-15  1.5334407763164327e-15  1.4726060686061238e-15  1.4179848517567366e-15  1.3694841979957156e-15  1.3271483595790506e-15  1.2911245195004688e-15  1.2616113890839851e-15  1.2387912181715539e-15  1.2227507672710018e-15  1.2133973483882939e-15  1.2103686171632933e-15  6.0075498270804925e-18  6.7888131502302196e-18  8.5910632473038848e-18  1.3178577775089048e-17  4.5296690391222373e-17  3.0607365893921696e-16  2.2515193179485365e-15  1.5520546492822223e-14  9.7642396110042308e-14  5.5635610881496464e-13  2.8648642961512268e-12  1.3326441228511919e-11  5.5998288023179056e-11  2.1256843402502093e-10  7.2896691485463523e-10  2.2585889664462256e-09  6.3232129493226489e-09  1.5998370041639863e-08  3.6587414529662541e-08  7.5648514771923613e-08  1.4144552898250318e-07  2.3923061707531597e-07  3.6610936731124413e-07  5.0711523289966129e-07  6.3598254354017824e-07  7.2239074658102739e-07  7.4342567924837921e-07  6.9341896081020751e-07  5.8641651496483732e-07  4.4981628653462111e-07  3.1308161501069345e-07  1.9781526977334034e-07  1.1351246712024493e-07  5.9187538013752796e-08  2.8058667459870916e-08  1.2101352802782224e-08  4.7517461704751540e-09  1.7002055258330481e-09  5.5491251450734522e-10  1.6540896507895492e-10  4.5098648867817146e-11  1.1268847039488902e-11  2.5876545859948799e-12  5.4892337901357482e-13  1.0926780662917321e-13  2.1791501518158656e-14  5.5823806480621834e-15  2.6970967814952028e-15  2.1338404448171317e-15  1.9570343371494095e-15  1.8480619964361914e-15  1.7567477588536577e-15  1.6749001219879216e-15  1.6007045701616860e-15  1.5334163014291916e-15  1.4725934366962863e-15  1.4179809690521129e-15  1.3694827288555147e-15  1.3271385455417252e-15  1.2910907650895015e-15  1.2615353171296563e-15  1.2386573714961315e-15  1.2225549660517520e-15  1.2131532163109222e-15  1.2101059680041231e-15  7.1449684886780658e-18  7.1111204629104448e-18  7.9407356661997177e-18  2.4375048272915970e-17  1.8812478044123886e-16  1.5172895188088255e-15  1.1450149980276882e-14  7.9309786344361520e-14  4.9820312831895702e-13  2.8276787631558096e-12  1.4494222048611018e-11  6.7102358384599303e-11  2.8059843599821566e-10  1.0598853338075765e-09  3.6165514154373445e-09  1.1149281022605703e-08  3.1058959582438731e-08  7.8199119826200257e-08  1.7798917769958132e-07  3.6633404112238294e-07  6.8199203487242742e-07  1.1487745086929758e-06  1.7513991373604803e-06  2.4175528406765637e-06  3.0224271729378564e-06  3.4235405584415586e-06  3.5146968736360531e-06  3.2715159510755112e-06  2.7619725529786804e-06  2.1157560081833193e-06  1.4711721734916628e-06  9.2896914594898068e-07  5.3294660131279876e-07  2.7793116212114242e-07  1.3183073615316837e-07  5.6913205326187502e-08  2.2380194241874945e-08  8.0235383532637541e-09  2.6253784929213025e-09  7.8507569217955192e-10  2.1489175143500028e-10  5.3948218354585346e-11  1.2453193126350516e-11  2.6524885271173951e-12  5.2458085752725013e-13  9.8075100194028842e-14  1.8693839699830464e-14  4.8208272350203822e-15  2.4606932457723709e-15  2.0052407198832617e-15  1.8548995311061182e-15  1.7576514201519321e-15  1.6749819406985396e-15  1.6006845704613440e-15  1.5333937255832559e-15  1.4725802351115669e-15  1.4179753354055523e-15  1.3694781748333415e-15  1.3271242321004713e-15  1.2910517286366687e-15  1.2614549064774151e-15  1.2385226722701482e-15  1.2223638706116876e-15  1.2129191746796518e-15  1.2098557173158147e-15  6.5863342388721917e-18  4.2069760598128908e-18  1.0005460318148893e-17  1.0139923386523284e-16  8.6990856530467142e-16  7.0512928935730332e-15  5.3615664950514598e-14  3.7135253764390583e-13  2.3228690859096225e-12  1.3115346724325549e-11  6.6867960339599010e-11  3.0789077302740181e-10  1.2803643918100968e-09  4.8090963290968601e-09  1.6317189600202263e-08  5.0021673496207274e-08  1.3857922189800820e-07  3.4703792591834206e-07  7.8581565700792368e-07  1.6094102010187633e-06  2.9823642350307291e-06  5.0021061383437183e-06  7.5961955187259439e-06  1.0448252667506172e-05  1.3021125714631941e-05  1.4708335962300737e-05  1.5064060894043004e-05  1.3993922147732309e-05  1.1795465509853195e-05  9.0247449855897012e-06  6.2701049503702490e-06  3.9575299081015451e-06  2.2703409203492333e-06  1.1844251121815595e-06  5.6226019406552035e-07  2.4304351763546739e-07  9.5742077221160659e-08  3.4404424870310906e-08  1.1290737089215663e-08  3.3887296191185105e-09  9.3175960101265061e-10  2.3520293453168396e-10  5.4651165391509916e-11  1.1728251385321412e-11  2.3352863385062819e-12  4.3488875885813729e-13  7.7470480504798353e-14  1.4515503518121826e-14  3.9853102383900225e-15  2.2360693851480