<?xml version="1.0"?>
<VTKFile type="UnstructuredGrid"  version="0.1"  >
<UnstructuredGrid>
<Piece  NumberOfPoints="4225" NumberOfCells="8192">
<Points>
<DataArray  type="Float64"  NumberOfComponents="3"  format="ascii">0 0 0  0.015625 0 0  0.03125 0 0  0.046875 0 0  0.0625 0 0  0.078125 0 0  0.09375 0 0  0.109375 0 0  0.125 0 0  0.140625 0 0  0.15625 0 0  0.171875 0 0  0.1875 0 0  0.203125 0 0  0.21875 0 0  0.234375 0 0  0.25 0 0  0.265625 0 0  0.28125 0 0  0.296875 0 0  0.3125 0 0  0.328125 0 0  0.34375 0 0  0.359375 0 0  0.375 0 0  0.390625 0 0  0.40625 0 0  0.421875 0 0  0.4375 0 0  0.453125 0 0  0.46875 0 0  0.484375 0 0  0.5 0 0  0.515625 0 0  0.53125 0 0  0.546875 0 0  0.5625 0 0  0.578125 0 0  0.59375 0 0  0.609375 0 0  0.625 0 0  0.640625 0 0  0.65625 0 0  0.671875 0 0  0.6875 0 0  0.703125 0 0  0.71875 0 0  0.734375 0 0  0.75 0 0  0.765625 0 0  0.78125 0 0  0.796875 0 0  0.8125 0 0  0.828125 0 0  0.84375 0 0  0.859375 0 0  0.875 0 0  0.890625 0 0  0.90625 0 0  0.921875 0 0  0.9375 0 0  0.953125 0 0  0.96875 0 0  0.984375 0 0  1 0 0  0 0.015625 0  0.015625 0.015625 0  0.03125 0.015625 0  0.046875 0.015625 0  0.0625 0.015625 0  0.078125 0.015625 0  0.09375 0.015625 0  0.109375 0.015625 0  0.125 0.015625 0  0.140625 0.015625 0  0.15625 0.015625 0  0.171875 0.015625 0  0.1875 0.015625 0  0.203125 0.015625 0  0.21875 0.015625 0  0.234375 0.015625 0  0.25 0.015625 0  0.265625 0.015625 0  0.28125 0.015625 0  0.296875 0.015625 0  0.3125 0.015625 0  0.328125 0.015625 0  0.34375 0.015625 0  0.359375 0.015625 0  0.375 0.015625 0  0.390625 0.015625 0  0.40625 0.015625 0  0.421875 0.015625 0  0.4375 0.015625 0  0.453125 0.015625 0  0.46875 0.015625 0  0.484375 0.015625 0  0.5 0.015625 0  0.515625 0.015625 0  0.53125 0.015625 0  0.546875 0.015625 0  0.5625 0.015625 0  0.578125 0.015625 0  0.59375 0.015625 0  0.609375 0.015625 0  0.625 0.015625 0  0.640625 0.015625 0  0.65625 0.015625 0  0.671875 0.015625 0  0.6875 0.015625 0  0.703125 0.015625 0  0.71875 0.015625 0  0.734375 0.015625 0  0.75 0.015625 0  0.765625 0.015625 0  0.78125 0.015625 0  0.796875 0.015625 0  0.8125 0.015625 0  0.828125 0.015625 0  0.84375 0.015625 0  0.859375 0.015625 0  0.875 0.015625 0  0.890625 0.015625 0  0.90625 0.015625 0  0.921875 0.015625 0  0.9375 0.015625 0  0.953125 0.015625 0  0.96875 0.015625 0  0.984375 0.015625 0  1 0.015625 0  0 0.03125 0  0.015625 0.03125 0  0.03125 0.03125 0  0.046875 0.03125 0  0.0625 0.03125 0  0.078125 0.03125 0  0.09375 0.03125 0  0.109375 0.03125 0  0.125 0.03125 0  0.140625 0.03125 0  0.15625 0.03125 0  0.171875 0.03125 0  0.1875 0.03125 0  0.203125 0.03125 0  0.21875 0.03125 0  0.234375 0.03125 0  0.25 0.03125 0  0.265625 0.03125 0  0.28125 0.03125 0  0.296875 0.03125 0  0.3125 0.03125 0  0.328125 0.03125 0  0.34375 0.03125 0  0.359375 0.03125 0  0.375 0.03125 0  0.390625 0.03125 0  0.40625 0.03125 0  0.421875 0.03125 0  0.4375 0.03125 0  0.453125 0.03125 0  0.46875 0.03125 0  0.484375 0.03125 0  0.5 0.03125 0  0.515625 0.03125 0  0.53125 0.03125 0  0.546875 0.03125 0  0.5625 0.03125 0  0.578125 0.03125 0  0.59375 0.03125 0  0.609375 0.03125 0  0.625 0.03125 0  0.640625 0.03125 0  0.65625 0.03125 0  0.671875 0.03125 0  0.6875 0.03125 0  0.703125 0.03125 0  0.71875 0.03125 0  0.734375 0.03125 0  0.75 0.03125 0  0.765625 0.03125 0  0.78125 0.03125 0  0.796875 0.03125 0  0.8125 0.03125 0  0.828125 0.03125 0  0.84375 0.03125 0  0.859375 0.03125 0  0.875 0.03125 0  0.890625 0.03125 0  0.90625 0.03125 0  0.921875 0.03125 0  0.9375 0.03125 0  0.953125 0.03125 0  0.96875 0.03125 0  0.984375 0.03125 0  1 0.03125 0  0 0.046875 0  0.015625 0.046875 0  0.03125 0.046875 0  0.046875 0.046875 0  0.0625 0.046875 0  0.078125 0.046875 0  0.09375 0.046875 0  0.109375 0.046875 0  0.125 0.046875 0  0.140625 0.046875 0  0.15625 0.046875 0  0.171875 0.046875 0  0.1875 0.046875 0  0.203125 0.046875 0  0.21875 0.046875 0  0.234375 0.046875 0  0.25 0.046875 0  0.265625 0.046875 0  0.28125 0.046875 0  0.296875 0.046875 0  0.3125 0.046875 0  0.328125 0.046875 0  0.34375 0.046875 0  0.359375 0.046875 0  0.375 0.046875 0  0.390625 0.046875 0  0.40625 0.046875 0  0.421875 0.046875 0  0.4375 0.046875 0  0.453125 0.046875 0  0.46875 0.046875 0  0.484375 0.046875 0  0.5 0.046875 0  0.515625 0.046875 0  0.53125 0.046875 0  0.546875 0.046875 0  0.5625 0.046875 0  0.578125 0.046875 0  0.59375 0.046875 0  0.609375 0.046875 0  0.625 0.046875 0  0.640625 0.046875 0  0.65625 0.046875 0  0.671875 0.046875 0  0.6875 0.046875 0  0.703125 0.046875 0  0.71875 0.046875 0  0.734375 0.046875 0  0.75 0.046875 0  0.765625 0.046875 0  0.78125 0.046875 0  0.796875 0.046875 0  0.8125 0.046875 0  0.828125 0.046875 0  0.84375 0.046875 0  0.859375 0.046875 0  0.875 0.046875 0  0.890625 0.046875 0  0.90625 0.046875 0  0.921875 0.046875 0  0.9375 0.046875 0  0.953125 0.046875 0  0.96875 0.046875 0  0.984375 0.046875 0  1 0.046875 0  0 0.0625 0  0.015625 0.0625 0  0.03125 0.0625 0  0.046875 0.0625 0  0.0625 0.0625 0  0.078125 0.0625 0  0.09375 0.0625 0  0.109375 0.0625 0  0.125 0.0625 0  0.140625 0.0625 0  0.15625 0.0625 0  0.171875 0.0625 0  0.1875 0.0625 0  0.203125 0.0625 0  0.21875 0.0625 0  0.234375 0.0625 0  0.25 0.0625 0  0.265625 0.0625 0  0.28125 0.0625 0  0.296875 0.0625 0  0.3125 0.0625 0  0.328125 0.0625 0  0.34375 0.0625 0  0.359375 0.0625 0  0.375 0.0625 0  0.390625 0.0625 0  0.40625 0.0625 0  0.421875 0.0625 0  0.4375 0.0625 0  0.453125 0.0625 0  0.46875 0.0625 0  0.484375 0.0625 0  0.5 0.0625 0  0.515625 0.0625 0  0.53125 0.0625 0  0.546875 0.0625 0  0.5625 0.0625 0  0.578125 0.0625 0  0.59375 0.0625 0  0.609375 0.0625 0  0.625 0.0625 0  0.640625 0.0625 0  0.65625 0.0625 0  0.671875 0.0625 0  0.6875 0.0625 0  0.703125 0.0625 0  0.71875 0.0625 0  0.734375 0.0625 0  0.75 0.0625 0  0.765625 0.0625 0  0.78125 0.0625 0  0.796875 0.0625 0  0.8125 0.0625 0  0.828125 0.0625 0  0.84375 0.0625 0  0.859375 0.0625 0  0.875 0.0625 0  0.890625 0.0625 0  0.90625 0.0625 0  0.921875 0.0625 0  0.9375 0.0625 0  0.953125 0.0625 0  0.96875 0.0625 0  0.984375 0.0625 0  1 0.0625 0  0 0.078125 0  0.015625 0.078125 0  0.03125 0.078125 0  0.046875 0.078125 0  0.0625 0.078125 0  0.078125 0.078125 0  0.09375 0.078125 0  0.109375 0.078125 0  0.125 0.078125 0  0.140625 0.078125 0  0.15625 0.078125 0  0.171875 0.078125 0  0.1875 0.078125 0  0.203125 0.078125 0  0.21875 0.078125 0  0.234375 0.078125 0  0.25 0.078125 0  0.265625 0.078125 0  0.28125 0.078125 0  0.296875 0.078125 0  0.3125 0.078125 0  0.328125 0.078125 0  0.34375 0.078125 0  0.359375 0.078125 0  0.375 0.078125 0  0.390625 0.078125 0  0.40625 0.078125 0  0.421875 0.078125 0  0.4375 0.078125 0  0.453125 0.078125 0  0.46875 0.078125 0  0.484375 0.078125 0  0.5 0.078125 0  0.515625 0.078125 0  0.53125 0.078125 0  0.546875 0.078125 0  0.5625 0.078125 0  0.578125 0.078125 0  0.59375 0.078125 0  0.609375 0.078125 0  0.625 0.078125 0  0.640625 0.078125 0  0.65625 0.078125 0  0.671875 0.078125 0  0.6875 0.078125 0  0.703125 0.078125 0  0.71875 0.078125 0  0.734375 0.078125 0  0.75 0.078125 0  0.765625 0.078125 0  0.78125 0.078125 0  0.796875 0.078125 0  0.8125 0.078125 0  0.828125 0.078125 0  0.84375 0.078125 0  0.859375 0.078125 0  0.875 0.078125 0  0.890625 0.078125 0  0.90625 0.078125 0  0.921875 0.078125 0  0.9375 0.078125 0  0.953125 0.078125 0  0.96875 0.078125 0  0.984375 0.078125 0  1 0.078125 0  0 0.09375 0  0.015625 0.09375 0  0.03125 0.09375 0  0.046875 0.09375 0  0.0625 0.09375 0  0.078125 0.09375 0  0.09375 0.09375 0  0.109375 0.09375 0  0.125 0.09375 0  0.140625 0.09375 0  0.15625 0.09375 0  0.171875 0.09375 0  0.1875 0.09375 0  0.203125 0.09375 0  0.21875 0.09375 0  0.234375 0.09375 0  0.25 0.09375 0  0.265625 0.09375 0  0.28125 0.09375 0  0.296875 0.09375 0  0.3125 0.09375 0  0.328125 0.09375 0  0.34375 0.09375 0  0.359375 0.09375 0  0.375 0.09375 0  0.390625 0.09375 0  0.40625 0.09375 0  0.421875 0.09375 0  0.4375 0.09375 0  0.453125 0.09375 0  0.46875 0.09375 0  0.484375 0.09375 0  0.5 0.09375 0  0.515625 0.09375 0  0.53125 0.09375 0  0.546875 0.09375 0  0.5625 0.09375 0  0.578125 0.09375 0  0.59375 0.09375 0  0.609375 0.09375 0  0.625 0.09375 0  0.640625 0.09375 0  0.65625 0.09375 0  0.671875 0.09375 0  0.6875 0.09375 0  0.703125 0.09375 0  0.71875 0.09375 0  0.734375 0.09375 0  0.75 0.09375 0  0.765625 0.09375 0  0.78125 0.09375 0  0.796875 0.09375 0  0.8125 0.09375 0  0.828125 0.09375 0  0.84375 0.09375 0  0.859375 0.09375 0  0.875 0.09375 0  0.890625 0.09375 0  0.90625 0.09375 0  0.921875 0.09375 0  0.9375 0.09375 0  0.953125 0.09375 0  0.96875 0.09375 0  0.984375 0.09375 0  1 0.09375 0  0 0.109375 0  0.015625 0.109375 0  0.03125 0.109375 0  0.046875 0.109375 0  0.0625 0.109375 0  0.078125 0.109375 0  0.09375 0.109375 0  0.109375 0.109375 0  0.125 0.109375 0  0.140625 0.109375 0  0.15625 0.109375 0  0.171875 0.109375 0  0.1875 0.109375 0  0.203125 0.109375 0  0.21875 0.109375 0  0.234375 0.109375 0  0.25 0.109375 0  0.265625 0.109375 0  0.28125 0.109375 0  0.296875 0.109375 0  0.3125 0.109375 0  0.328125 0.109375 0  0.34375 0.109375 0  0.359375 0.109375 0  0.375 0.109375 0  0.390625 0.109375 0  0.40625 0.109375 0  0.421875 0.109375 0  0.4375 0.109375 0  0.453125 0.109375 0  0.46875 0.109375 0  0.484375 0.109375 0  0.5 0.109375 0  0.515625 0.109375 0  0.53125 0.109375 0  0.546875 0.109375 0  0.5625 0.109375 0  0.578125 0.109375 0  0.59375 0.109375 0  0.609375 0.109375 0  0.625 0.109375 0  0.640625 0.109375 0  0.65625 0.109375 0  0.671875 0.109375 0  0.6875 0.109375 0  0.703125 0.109375 0  0.71875 0.109375 0  0.734375 0.109375 0  0.75 0.109375 0  0.765625 0.109375 0  0.78125 0.109375 0  0.796875 0.109375 0  0.8125 0.109375 0  0.828125 0.109375 0  0.84375 0.109375 0  0.859375 0.109375 0  0.875 0.109375 0  0.890625 0.109375 0  0.90625 0.109375 0  0.921875 0.109375 0  0.9375 0.109375 0  0.953125 0.109375 0  0.96875 0.109375 0  0.984375 0.109375 0  1 0.109375 0  0 0.125 0  0.015625 0.125 0  0.03125 0.125 0  0.046875 0.125 0  0.0625 0.125 0  0.078125 0.125 0  0.09375 0.125 0  0.109375 0.125 0  0.125 0.12
[...]
<PointData  Scalars="f_9634"> 
<DataArray  type="Float64"  Name="f_9634"  format="ascii">3.5569020184088787e-05  3.1975359969441948e-05  2.5271122712480045e-05  1.9900970092176571e-05  1.5469434402541120e-05  1.1870300178303072e-05  8.9842909554292704e-06  6.7019749236469986e-06  4.9232865769298901e-06  3.5583940835360735e-06  2.5280629682962518e-06  1.7636749767771756e-06  1.2069243569967105e-06  8.0923935036230726e-07  5.3098601624605563e-07  3.4051767327844076e-07  2.1313474081351987e-07  1.3001672988499947e-07  7.7181046429259783e-08  4.4513024846337941e-08  2.4899399035528627e-08  1.3484576639681302e-08  7.0569106969955390e-09  3.5617528703792216e-09  1.7301713512000960e-09  8.0715549535606478e-10  3.6082647302540526e-10  1.5420867812255139e-10  6.2856918451942155e-11  2.4376289769279812e-11  8.9714887625946268e-12  3.1256214983679361e-12  1.0281619907057246e-12  3.1850064741018068e-13  9.2672873491972603e-14  2.5262108505603591e-14  6.4354852346661226e-15  1.5287979424696082e-15  3.3842806814620267e-16  7.0271522640494750e-17  1.4311182558809027e-17  3.5174035045661766e-18  1.5972669677205277e-18  1.2828739269100865e-18  1.2355839944206202e-18  1.2290609489817121e-18  1.2282371737104308e-18  1.2281420705774066e-18  1.2281320470615742e-18  1.2281310837745993e-18  1.2281309994544658e-18  1.2281309927381160e-18  1.2281309922517049e-18  1.2281309922196971e-18  1.2281309922177837e-18  1.2281309922176779e-18  1.2281309922176706e-18  1.2281309922176677e-18  1.2281309922176658e-18  1.2281309922176631e-18  1.2281309922176604e-18  1.2281309922176569e-18  1.2281309922176535e-18  1.2281309922176473e-18  1.2281309922176388e-18  5.0627239302842287e-05  4.5047991613598611e-05  3.5641760098012031e-05  2.8422775150200243e-05  2.2360885890849582e-05  1.7376574464997149e-05  1.3326037534893770e-05  1.0077995586551458e-05  7.5097813234149722e-06  5.5091066249059854e-06  3.9749451175456348e-06  2.8180294553474167e-06  1.9609391251012451e-06  1.3378159680641257e-06  8.9375781727962283e-07  5.8395375259774743e-07  3.7263257848861901e-07  2.3189894641071092e-07  1.4052896553563836e-07  8.2789639620391100e-08  4.7335009959033830e-08  2.6217848538808740e-08  1.4040722968798058e-08  7.2558343525397637e-09  3.6105766914525135e-09  1.7262436032791902e-09  7.9116929457789855e-10  3.4677422650749498e-10  1.4499997072488198e-10  5.7694626629155336e-11  2.1788385359456390e-11  7.7891696550009726e-12  2.6288885601916961e-12  8.3540605998265273e-13  2.4928489095037215e-13  6.9663333650306779e-14  1.8183757531821052e-14  4.4224191547047135e-15  1.0002052892229081e-15  2.1046900393686318e-16  4.1760481418323478e-17  8.4735412286163389e-18  2.4208230843391067e-18  1.4085806743772972e-18  1.2531786333577610e-18  1.2313155154261464e-18  1.2285012775588496e-18  1.2281703158770680e-18  1.2281348017295652e-18  1.2281313285088484e-18  1.2281310192437074e-18  1.2281309941933169e-18  1.2281309923489195e-18  1.2281309922255585e-18  1.2281309922180660e-18  1.2281309922176516e-18  1.2281309922176290e-18  1.2281309922176261e-18  1.2281309922176232e-18  1.2281309922176209e-18  1.2281309922176186e-18  1.2281309922176153e-18  1.2281309922176134e-18  1.2281309922176096e-18  1.2281309922176063e-18  9.8177222371374832e-05  8.8367568493320252e-05  7.1567217039217803e-05  5.8199247465903383e-05  4.6691000992850541e-05  3.7026934016559056e-05  2.8996600258220294e-05  2.2408158055043886e-05  1.7074346652755129e-05  1.2817017639804449e-05  9.4696687183923300e-06  6.8795459144961939e-06  4.9091321564317610e-06  3.4370125272376754e-06  2.3581275095812811e-06  1.5834581451694708e-06  1.0392154347436651e-06  6.6562911029913314e-07  4.1544600372235217e-07  2.5225431515474581e-07  1.4874679348613036e-07  8.5023884930035900e-08  4.7018999276384318e-08  2.5104693774006098e-08  1.2913711576921055e-08  6.3853344168989464e-09  3.0278346200333368e-09  1.3735229498719216e-09  5.9456164608441326e-10  2.4495325178020008e-10  9.5792999090778606e-11  3.5462045338962011e-11  1.2392857859930412e-11  4.0770494005471056e-12  1.2591468035287377e-12  3.6405057784032560e-13  9.8270366567913743e-14  2.4701114809644212e-14  5.7673208552848914e-15  1.2483622107123381e-15  2.5056168029947770e-16  4.7204653291586385e-17  9.0317388717178436e-18  2.4449926029163027e-18  1.4021605205343958e-18  1.2509216449042056e-18  1.2308601187696395e-18  1.2284294393317340e-18  1.2281607630818384e-18  1.2281336983934080e-18  1.2281312161795316e-18  1.2281310090795128e-18  1.2281309933716767e-18  1.2281309922892886e-18  1.2281309922215616e-18  1.2281309922177138e-18  1.2281309922175133e-18  1.2281309922175023e-18  1.2281309922174994e-18  1.2281309922174975e-18  1.2281309922174950e-18  1.2281309922174934e-18  1.2281309922174913e-18  1.2281309922174892e-18  1.2281309922174873e-18  1.9963145637179756e-04  1.8143134135106066e-04  1.4971962326848468e-04  1.2381285675889115e-04  1.0111454905616895e-04  8.1675342164770956e-05  6.5187003197516563e-05  5.1371151983813040e-05  3.9941211107526984e-05  3.0612539139465031e-05  2.3107855313184482e-05  1.7162470812864484e-05  1.2528740316490432e-05  8.9796166337181112e-06  6.3112028789890112e-06  4.3442554205924425e-06  2.9246508719101402e-06  1.9228901307264737e-06  1.2327662807993530e-06  7.6936591735134696e-07  4.6660092035904425e-07  2.7447726528943495e-07  1.5629863964428561e-07  8.5977260946983635e-08  4.5586340149759810e-08  2.3243615503962299e-08  1.1369426643198392e-08  5.3215977285530443e-09  2.3772439309184611e-09  1.0107729675564078e-09  4.0791202691392447e-10  1.5580032313266662e-10  5.6155733367185282e-11  1.9044409531282596e-11  6.0591615941626199e-12  1.8032912460996098e-12  5.0059910386160706e-13  1.2926676446856941e-13  3.0967996521445181e-14  6.8661515513902840e-15  1.4062227542937355e-15  2.6611169407026490e-16  4.7136412364350029e-17  8.5289141811954861e-18  2.2916570873112041e-18  1.3698257422000752e-18  1.2453726240545371e-18  1.2300447004297968e-18  1.2283245261489724e-18  1.2281488072728873e-18  1.2281324835672887e-18  1.2281311056642412e-18  1.2281310000538730e-18  1.2281309927085684e-18  1.2281309922452372e-18  1.2281309922187414e-18  1.2281309922173665e-18  1.2281309922173003e-18  1.2281309922172954e-18  1.2281309922172928e-18  1.2281309922172906e-18  1.2281309922172893e-18  1.2281309922172877e-18  1.2281309922172864e-18  1.2281309922172839e-18  3.9946456176841372e-04  3.6605394803569918e-04  3.0720965357723635e-04  2.5819212019335069e-04  2.1448357031365550e-04  1.7632301515013742e-04  1.4331066526640979e-04  1.1508222660577731e-04  9.1235089850985650e-05  7.1347779590354138e-05  5.4989266786232461e-05  4.1729153752950225e-05  3.1147259216966426e-05  2.2842315339072189e-05  1.6439423659017773e-05  1.1595989970778307e-05  8.0059446385964647e-06  5.4021595855357669e-06  3.5570870023680823e-06  2.2817575366078296e-06  1.4233761305468388e-06  8.6183114025140387e-07  5.0547844409729774e-07  2.8657223954928739e-07  1.5668823646475871e-07  8.2428159055828017e-08  4.1616380788040863e-08  2.0112320383662079e-08  9.2784950887346813e-09  4.0744631425094074e-09  1.6980771180441155e-09  6.6960636520267173e-10  2.4906500671796079e-10  8.7112575464306950e-11  2.8560888871627048e-11  8.7509127562831709e-12  2.4982191804535329e-12  6.6261284949746594e-13  1.6284067806389817e-13  3.6986206272646741e-14  7.7463572269240827e-15  1.4934171364600151e-15  2.6519373996102869e-16  4.4025386332348311e-17  7.5773920513876415e-18  2.0887985382423562e-18  1.3345910755235349e-18  1.2401335669616670e-18  1.2293631136261107e-18  1.2282460544427965e-18  1.2281407594173232e-18  1.2281317453444919e-18  1.2281310449366517e-18  1.2281309955656194e-18  1.2281309924099216e-18  1.2281309922270826e-18  1.2281309922174807e-18  1.2281309922170218e-18  1.2281309922169998e-18  1.2281309922169964e-18  1.2281309922169935e-18  1.2281309922169908e-18  1.2281309922169892e-18  1.2281309922169861e-18  1.2281309922169858e-18  7.7826497412024440e-04  7.1878652956499105e-04  6.1313905926450765e-04  5.2355867395962458e-04  4.4222087860875086e-04  3.6984936266651152e-04  3.0601309828892713e-04  2.5032164758952927e-04  2.0228951619406500e-04  1.6136731618583610e-04  1.2695457254287043e-04  9.8416041871764154e-05  7.5098453992466591e-05  5.6347239485037820e-05  4.1522507194106484e-05  3.0013572502605231e-05  2.1251398958434438e-05  1.4718431998157480e-05  9.9554665457045102e-06  6.5653891090384841e-06  4.2138523881923215e-06  2.6271545550179410e-06  1.5877825329378586e-06  9.2821666806828067e-07  5.2366656214747013e-07  2.8440693622114118e-07  1.4831157476086222e-07  7.4056825577677449e-08  3.5306320362194122e-08  1.6022072794607196e-08  6.8990823975651244e-09  2.8096661609875070e-09  1.0786126225064997e-09  3.8901979785983638e-10  1.3138147736795753e-10  4.1414072790929003e-11  1.2146813183423920e-11  3.3051955718111206e-12  8.3206061262700498e-13  1.9329893720787227e-13  4.1344037702942394e-14  8.1249142998907188e-15  1.4649390287405886e-15  2.4264132660941439e-16  3.7619986959786848e-17  6.2352964080739228e-18  1.8561862269817852e-18  1.2998700888403231e-18  1.2355861121304966e-18  1.2288352499576551e-18  1.2281914244464988e-18  1.2281356996792865e-18  1.2281313249091051e-18  1.2281310135384525e-18  1.2281309934552484e-18  1.2281309922817979e-18  1.2281309922197040e-18  1.2281309922167260e-18  1.2281309922165933e-18  1.2281309922165856e-18  1.2281309922165821e-18  1.2281309922165784e-18  1.2281309922165753e-18  1.2281309922165740e-18  1.2281309922165726e-18  1.4732625898667292e-03  1.3711565274749831e-03  1.1883538123006587e-03  1.0306465379791101e-03  8.8481274414699729e-04  7.5260194871850142e-04  6.3371016643954910e-04  5.2789807037794377e-04  4.3473834478158761e-04  3.5365991064032073e-04  2.8396040332975294e-04  2.2482698481506388e-04  1.7536000159877005e-04  1.3459917803182475e-04  1.0155123310253519e-04  7.5217712195898740e-05  5.4621733891635442e-05  3.8832356736886942e-05  2.6985378666831801e-05  1.8299596438463521e-05  1.2087864679439648e-05  7.7626800825335890e-06  4.8364382722336751e-06  2.9169213907113169e-06  1.6989228609792807e-06  9.5315689187480519e-07  5.1370269862488881e-07  2.6518616796654969e-07  1.3071815214262700e-07  6.1326095795203282e-08  2.7289271527003075e-08  1.1477316810506047e-08  4.5460089747125165e-09  1.6896770310666737e-09  5.8726358140515634e-10  1.9021615478093856e-10  5.7233963273336152e-11  1.5949729502556156e-11  4.1053508458183917e-12  9.7354586258854312e-13  2.1222216640253250e-13  4.2440414259784551e-14  7.7727780995360579e-15  1.3023355179321701e-15  2.0009677287411236e-16  2.8943554542936145e-17  4.7461421897461434e-18  1.6344517403779738e-18  1.2707951777160617e-18  1.2322006017464435e-18  1.2284834034781018e-18  1.2281586810149513e-18  1.2281329650851447e-18  1.2281311196380792e-18  1.2281309996733560e-18  1.2281309926113877e-18  1.2281309922350204e-18  1.2281309922168604e-18  1.2281309922160634e-18  1.2281309922160278e-18  1.2281309922160232e-18  1.2281309922160186e-18  1.2281309922160141e-18  1.2281309922160095e-18  1.2281309922160082e-18  2.7074605091400531e-03  2.5388893009677107e-03  2.2347389214410571e-03  1.9678269559811573e-03  1.7164605013674523e-03  1.4842971681106884e-03  1.2714696129660569e-03  1.0782577293019611e-03  9.0462247436235083e-04  7.5026398747492619e-04  6.1462330325664746e-04  4.9689981777829677e-04  3.9607557470062625e-04  3.1094692385479354e-04  2.4016246828536760e-04  1.8226588460097188e-04  1.3574176292260510e-04  9.9062273788787385e-05  7.0732264194508907e-05  4.9330360722574976e-05  3.3543846486784131e-05  2.2195489517377964e-05  1.4261112307435068e-05  8.8774527456093929e-06  5.3406956560795337e-06  3.0968529541207570e-06  1.7258314388910401e-06  9.2144814332815107e-07  4.6976038266691536e-07  2.2785601413453612e-07  1.0475986374200312e-07  4.5478398964867327e-08  1.8569688016488115e-08  7.1044551259753107e-09  2.5373438540603217e-09  8.4300894305413528e-10  2.5970350982364806e-10  7.3964484406348934e-11  1.9422199040383981e-11  4.6908843519700910e-12  1.0398228415020663e-12  2.1114825638445698e-13  3.9211884441728936e-14  6.6505042941637841e-15  1.0295546950267588e-15  1.4609783278460755e-16  1.9800925543670551e-17  3.3930729632729695e-18  1.4574010360918458e-18  1.2501746881988842e-18  1.2300540761514164e-18  1.2282831388025513e-18  1.2281419035791254e-18  1.2281317012665200e-18  1.2281310339512454e-18  1.2281309944398895e-18  1.2281309923226405e-18  1.2281309922199767e-18  1.2281309922154683e-18  1.2281309922152836e-18  1.2281309922152723e-18  1.2281309922152657e-18  1.2281309922152601e-18  1.2281309922152561e-18  1.2281309922152490e-18  4.8269117150724124e-03  4.5599387399448740e-03  4.0744974211070458e-03  3.6412451069610086e-03  3.2256907489482023e-03  2.8347036605412936e-03  2.4693433523885634e-03  2.1310308820474575e-03  1.8207179661096555e-03  1.5389609510019018e-03  1.2858921015435289e-03  1.0612163974924938e-03  8.6421948271558479e-04  6.9378955684447894e-04  5.4845318914998351e-04  4.2642450279730787e-04  3.2566625752701876e-04  2.4396043060547114e-04  1.7898501219467297e-04  1.2839300205249975e-04  8.9889130409792387e-05  6.1299722946694219e-05  4.0631451288240099e-05  2.6115480407482522e-05  1.6234727398889946e-05  9.7335133427679637e-06  5.6106605701222915e-06  3.0987808177325684e-06  1.6337626488525672e-06  8.1901458434036323e-07  3.8878420182712329e-07  1.7402744101229957e-07  7.3149413606472035e-08  2.8756596614816212e-08  1.0532737054919763e-08  3.5816724966167685e-09  1.1271207299496481e-09  3.2729146207487380e-10  8.7469507209496999e-11  2.1465710296889084e-11  4.8275770537842413e-12  9.9321953500586670e-13  1.8664943653014534e-13  3.1996195880441888e-14  4.9981924064876249e-15  7.1153943386843033e-16  9.3043484891425147e-17  1.2011642113373779e-17  2.3780827640346933e-18  1.3394084018888090e-18  1.2378968111250627e-18  1.2289079194678917e-18  1.2281869994613168e-18  1.2281346493931915e-18  1.2281312084630993e-18  1.2281310037901707e-18  1.2281309927751528e-18  1.2281309922388817e-18  1.2281309922152597e-18  1.2281309922143116e-18  1.2281309922142708e-18  1.2281309922142613e-18  1.2281309922142527e-18  1.2281309922142425e-18  1.2281309922142486e-18  8.3427714316742316e-03  7.9383606251768619e-03  7.1972624237870708e-03  6.5246813085338990e-03  5.8675770395690144e-03  5.2377524726280721e-03  4.6378209830616138e-03  4.0712222447276637e-03  3.5408079242116941e-03  3.0489405486933555e-03  2.5974065464891664e-03  2.1873654548561585e-03  1.8193114456747182e-03  1.4930540703327058e-03  1.2077208109837238e-03  9.6178369744762669e-04  7.5311104349733149e-04  5.7904388574870225e-04  4.3649498010775250e-04  3.2206636456604513e-04  2.3217969938391320e-04  1.6321201592069920e-04  1.1162830971890995e-04  7.4101819905087658e-05  4.7613182499186681e-05  2.9521315823229715e-05  1.7602024906438377e-05  1.0054425813325508e-05  5.4793143751754268e-06  2.8364029035369995e-06  1.3884240456398754e-06  6.3977412882811993e-07  2.7629494235726810e-07  1.1136596512833865e-07  4.1734064180909458e-08  1.4489924085487594e-08  4.6464091066007272e-09  1.3722729813973377e-09  3.7237351363006981e-10  9.2642465672426814e-11  2.1092685497838394e-11  4.3877937033837850e-12  8.3281038057045071e-13  1.4404711679980286e-13  2.2681595012869468e-14  3.2490234946421903e-15  4.2385969753839968e-16  5.1169266549172347e-17  6.5836846631822058e-18  1.7490369982307608e-18  1.2740626878306104e-18  1.2318011037353789e-18  1.2283966356359828e-18  1.2281484035760251e-18  1.2281320253566725e-18  1.2281310476986629e-18  1.2281309949095175e-18  1.2281309923315345e-18  1.2281309922176739e-18  1.2281309922131179e-18  1.2281309922129444e-18  1.2281309922129296e-18  1.2281309922129199e-18  1.2281309922129107e-18  1.2281309922129180e-18  1.3970126375426087e-02  1.3386378229488875e-02  1.2308120070915684e-02  1.1313061102491639e-02  1.0322528478749303e-02  9.3552302233551425e-03  8.4159204887875368e-03  7.5110561794194458e-03  6.6465061808940991e-03  5.8277042908441651e-03  5.0594763475634904e-03  4.3459130118528892e-03  3.6902469266414592e-03  3.0947468784753309e-03  2.5606352809767413e-03  2.0880361212773473e-03  1.6759598273942593e-03  1.3223302944044433e-03  1.0240574093876779e-03  7.7715590989649926e-04  5.7690832932937768e-04  4.1806602746545366e-04  2.9507773618936986e-04  2.0232996359437127e-04  1.3437933045677635e-04  8.6155750679933881e-05  5.3119143235995646e-05  3.1360510334770453e-05  1.7647379507029720e-05  9.4199309801997519e-06  4.7464075454070905e-06  2.2467504746249578e-06  9.9458670691384058e-07  4.1001530633509172e-07  1.5680875129053763e-07  5.5446919799721972e-08  1.8072713806675745e-08  5.4159737590475247e-09  1.4888672842811379e-09  3.7472581996771964e-10  8.6201874708143965e-11  1.8098037166469069e-11  3.4634467660252643e-12  6.0349064596411315e-13  9.5654212451951249e-14  1.3780625297390399e-14  1.8040164331388037e-15  2.1530058633994135e-16  2.4286627039776215e-17  3.4799722041341240e-18  1.4274231700786929e-18  1.2441089585033952e-18  1.2292910676488448e-18  1.2282072455524999e-18  1.2281355288252325e-18  1.2281312364495654e-18  1.2281310041079798e-18  1.2281309927354342e-18  1.2281309922320970e-18  1.2281309922119441e-18  1.2281309922112024e-18  1.2281309922111662e-18  1.2281309922111539e-18  1.2281309922111427e-18  1.2281309922111421e-18  2.2649674539255604e-02  2.1850761558047629e-02  2.0362854334878517e-02  1.8966328033231564e-02  1.7549054697959837e-02  1.6138462899377478e-02  1.4741640237024366e-02  1.3368837452545856e-02  1.2029939603140473e-02  1.0734741887751063e-02  9.4926806383233715e-03  8.3126180363194760e-03  7.2026079347654696e-03  6.1696611882886589e-03  5.2195193811209982e-03  4.3564490594148473e-03  3.5830697092943636e-03  2.9002294842451455e-03  2.3069428531250725e-03  1.8004039440174097e-03  1.3760878614075562e-03  1.0279479709034273e-03  7.4870761008116250e-04  5.3022900231366652e-04  3.6392430172810225e-04  2.4116287309315057e-04  1.5363361360455082e-04  9.3640233710451943e-05  5.4327861030536207e-05  2.9846211176519094e-05  1.5445743289163250e-05  7.4925057735735865e-06  3.3911346103628427e-06  1.4261095059039782e-06  5.5519242734772190e-07  1.9943906929400876e-07  6.5922508834643227e-08  2.0001551730985045e-08  5.5590174036571922e-09  1.4127402090739427e-09  3.2778618493180297e-10  6.9344004477348911e-11  1.3360424160093039e-11  2.3420325990876365e-12  3.7320807705455880e-13  5.4022012365052677e-14  7.0992393039637538e-15  8.4732854545911643e-16  9.2679872435466711e-17  1.0186920372134139e-17  2.0232288686348144e-18  1.2920388594091170e-18  1.2327816994655964e-18  1.2284373305498570e-18  1.2281492523787562e-18  1.2281319770090174e-18  1.2281310402556430e-18  1.2281309943292047e-18  1.2281309922935168e-18  1.2281309922119290e-18  1.2281309922089577e-18  1.2281309922088445e-18  1.2281309922088254e-18  1.2281309922088108e-18  1.2281309922087919e-18  3.5532587098735753e-02  3.4503295897018303e-02  3.2569245662669270e-02  3.0721839573889905e-02  2.8808322394789226e-02  2.6865841164633520e-02  2.4903104570071909e-02  2.2934142658893313e-02  2.0973133618411813e-02  1.9034930054329362e-02  1.7134723137339779e-02  1.5287773025999854e-02  1.3509080228114728e-02  1.1813019644884036e-02  1.0212943242982509e-02  8.7207634498077599e-03  7.3465329810316910e-03  6.0980414265724980e-03  4.9804551709670243e-03  3.9960360624153538e-03  3.1439839371508638e-03  2.4204512377646015e-03  1.8187623848471323e-03  1.3298290266190041e-03  9.4269702028112730e-04  6.4512676286622743e-04  4.2412923445977194e-04  2.6645096382107655e-04  1.5906652607262743e-04  8.9732746545991815e-05  4.7575986262882288e-05  2.3588588675710492e-05  1.0887058537796222e-05  4.6585989824498555e-06  1.8416304005670990e-06  6.7054678035295254e-07  2.2428593544719428e-07  6.8762890137828106e-08  1.9286797992709334e-08  4.9410003312144457e-09  1.1545527354970121e-09  2.4577415130016647e-10  4.7613677226965313e-11  8.3870391716489917e-12  1.3422243517030762e-12  1.9502158893016104e-13  2.5711720611560228e-14  3.0750842689159165e-15  3.3434341594133894e-16  3.3936833887355