<?xml version="1.0"?>
<VTKFile type="UnstructuredGrid"  version="0.1"  >
<UnstructuredGrid>
<Piece  NumberOfPoints="4225" NumberOfCells="8192">
<Points>
<DataArray  type="Float64"  NumberOfComponents="3"  format="ascii">0 0 0  0.015625 0 0  0.03125 0 0  0.046875 0 0  0.0625 0 0  0.078125 0 0  0.09375 0 0  0.109375 0 0  0.125 0 0  0.140625 0 0  0.15625 0 0  0.171875 0 0  0.1875 0 0  0.203125 0 0  0.21875 0 0  0.234375 0 0  0.25 0 0  0.265625 0 0  0.28125 0 0  0.296875 0 0  0.3125 0 0  0.328125 0 0  0.34375 0 0  0.359375 0 0  0.375 0 0  0.390625 0 0  0.40625 0 0  0.421875 0 0  0.4375 0 0  0.453125 0 0  0.46875 0 0  0.484375 0 0  0.5 0 0  0.515625 0 0  0.53125 0 0  0.546875 0 0  0.5625 0 0  0.578125 0 0  0.59375 0 0  0.609375 0 0  0.625 0 0  0.640625 0 0  0.65625 0 0  0.671875 0 0  0.6875 0 0  0.703125 0 0  0.71875 0 0  0.734375 0 0  0.75 0 0  0.765625 0 0  0.78125 0 0  0.796875 0 0  0.8125 0 0  0.828125 0 0  0.84375 0 0  0.859375 0 0  0.875 0 0  0.890625 0 0  0.90625 0 0  0.921875 0 0  0.9375 0 0  0.953125 0 0  0.96875 0 0  0.984375 0 0  1 0 0  0 0.015625 0  0.015625 0.015625 0  0.03125 0.015625 0  0.046875 0.015625 0  0.0625 0.015625 0  0.078125 0.015625 0  0.09375 0.015625 0  0.109375 0.015625 0  0.125 0.015625 0  0.140625 0.015625 0  0.15625 0.015625 0  0.171875 0.015625 0  0.1875 0.015625 0  0.203125 0.015625 0  0.21875 0.015625 0  0.234375 0.015625 0  0.25 0.015625 0  0.265625 0.015625 0  0.28125 0.015625 0  0.296875 0.015625 0  0.3125 0.015625 0  0.328125 0.015625 0  0.34375 0.015625 0  0.359375 0.015625 0  0.375 0.015625 0  0.390625 0.015625 0  0.40625 0.015625 0  0.421875 0.015625 0  0.4375 0.015625 0  0.453125 0.015625 0  0.46875 0.015625 0  0.484375 0.015625 0  0.5 0.015625 0  0.515625 0.015625 0  0.53125 0.015625 0  0.546875 0.015625 0  0.5625 0.015625 0  0.578125 0.015625 0  0.59375 0.015625 0  0.609375 0.015625 0  0.625 0.015625 0  0.640625 0.015625 0  0.65625 0.015625 0  0.671875 0.015625 0  0.6875 0.015625 0  0.703125 0.015625 0  0.71875 0.015625 0  0.734375 0.015625 0  0.75 0.015625 0  0.765625 0.015625 0  0.78125 0.015625 0  0.796875 0.015625 0  0.8125 0.015625 0  0.828125 0.015625 0  0.84375 0.015625 0  0.859375 0.015625 0  0.875 0.015625 0  0.890625 0.015625 0  0.90625 0.015625 0  0.921875 0.015625 0  0.9375 0.015625 0  0.953125 0.015625 0  0.96875 0.015625 0  0.984375 0.015625 0  1 0.015625 0  0 0.03125 0  0.015625 0.03125 0  0.03125 0.03125 0  0.046875 0.03125 0  0.0625 0.03125 0  0.078125 0.03125 0  0.09375 0.03125 0  0.109375 0.03125 0  0.125 0.03125 0  0.140625 0.03125 0  0.15625 0.03125 0  0.171875 0.03125 0  0.1875 0.03125 0  0.203125 0.03125 0  0.21875 0.03125 0  0.234375 0.03125 0  0.25 0.03125 0  0.265625 0.03125 0  0.28125 0.03125 0  0.296875 0.03125 0  0.3125 0.03125 0  0.328125 0.03125 0  0.34375 0.03125 0  0.359375 0.03125 0  0.375 0.03125 0  0.390625 0.03125 0  0.40625 0.03125 0  0.421875 0.03125 0  0.4375 0.03125 0  0.453125 0.03125 0  0.46875 0.03125 0  0.484375 0.03125 0  0.5 0.03125 0  0.515625 0.03125 0  0.53125 0.03125 0  0.546875 0.03125 0  0.5625 0.03125 0  0.578125 0.03125 0  0.59375 0.03125 0  0.609375 0.03125 0  0.625 0.03125 0  0.640625 0.03125 0  0.65625 0.03125 0  0.671875 0.03125 0  0.6875 0.03125 0  0.703125 0.03125 0  0.71875 0.03125 0  0.734375 0.03125 0  0.75 0.03125 0  0.765625 0.03125 0  0.78125 0.03125 0  0.796875 0.03125 0  0.8125 0.03125 0  0.828125 0.03125 0  0.84375 0.03125 0  0.859375 0.03125 0  0.875 0.03125 0  0.890625 0.03125 0  0.90625 0.03125 0  0.921875 0.03125 0  0.9375 0.03125 0  0.953125 0.03125 0  0.96875 0.03125 0  0.984375 0.03125 0  1 0.03125 0  0 0.046875 0  0.015625 0.046875 0  0.03125 0.046875 0  0.046875 0.046875 0  0.0625 0.046875 0  0.078125 0.046875 0  0.09375 0.046875 0  0.109375 0.046875 0  0.125 0.046875 0  0.140625 0.046875 0  0.15625 0.046875 0  0.171875 0.046875 0  0.1875 0.046875 0  0.203125 0.046875 0  0.21875 0.046875 0  0.234375 0.046875 0  0.25 0.046875 0  0.265625 0.046875 0  0.28125 0.046875 0  0.296875 0.046875 0  0.3125 0.046875 0  0.328125 0.046875 0  0.34375 0.046875 0  0.359375 0.046875 0  0.375 0.046875 0  0.390625 0.046875 0  0.40625 0.046875 0  0.421875 0.046875 0  0.4375 0.046875 0  0.453125 0.046875 0  0.46875 0.046875 0  0.484375 0.046875 0  0.5 0.046875 0  0.515625 0.046875 0  0.53125 0.046875 0  0.546875 0.046875 0  0.5625 0.046875 0  0.578125 0.046875 0  0.59375 0.046875 0  0.609375 0.046875 0  0.625 0.046875 0  0.640625 0.046875 0  0.65625 0.046875 0  0.671875 0.046875 0  0.6875 0.046875 0  0.703125 0.046875 0  0.71875 0.046875 0  0.734375 0.046875 0  0.75 0.046875 0  0.765625 0.046875 0  0.78125 0.046875 0  0.796875 0.046875 0  0.8125 0.046875 0  0.828125 0.046875 0  0.84375 0.046875 0  0.859375 0.046875 0  0.875 0.046875 0  0.890625 0.046875 0  0.90625 0.046875 0  0.921875 0.046875 0  0.9375 0.046875 0  0.953125 0.046875 0  0.96875 0.046875 0  0.984375 0.046875 0  1 0.046875 0  0 0.0625 0  0.015625 0.0625 0  0.03125 0.0625 0  0.046875 0.0625 0  0.0625 0.0625 0  0.078125 0.0625 0  0.09375 0.0625 0  0.109375 0.0625 0  0.125 0.0625 0  0.140625 0.0625 0  0.15625 0.0625 0  0.171875 0.0625 0  0.1875 0.0625 0  0.203125 0.0625 0  0.21875 0.0625 0  0.234375 0.0625 0  0.25 0.0625 0  0.265625 0.0625 0  0.28125 0.0625 0  0.296875 0.0625 0  0.3125 0.0625 0  0.328125 0.0625 0  0.34375 0.0625 0  0.359375 0.0625 0  0.375 0.0625 0  0.390625 0.0625 0  0.40625 0.0625 0  0.421875 0.0625 0  0.4375 0.0625 0  0.453125 0.0625 0  0.46875 0.0625 0  0.484375 0.0625 0  0.5 0.0625 0  0.515625 0.0625 0  0.53125 0.0625 0  0.546875 0.0625 0  0.5625 0.0625 0  0.578125 0.0625 0  0.59375 0.0625 0  0.609375 0.0625 0  0.625 0.0625 0  0.640625 0.0625 0  0.65625 0.0625 0  0.671875 0.0625 0  0.6875 0.0625 0  0.703125 0.0625 0  0.71875 0.0625 0  0.734375 0.0625 0  0.75 0.0625 0  0.765625 0.0625 0  0.78125 0.0625 0  0.796875 0.0625 0  0.8125 0.0625 0  0.828125 0.0625 0  0.84375 0.0625 0  0.859375 0.0625 0  0.875 0.0625 0  0.890625 0.0625 0  0.90625 0.0625 0  0.921875 0.0625 0  0.9375 0.0625 0  0.953125 0.0625 0  0.96875 0.0625 0  0.984375 0.0625 0  1 0.0625 0  0 0.078125 0  0.015625 0.078125 0  0.03125 0.078125 0  0.046875 0.078125 0  0.0625 0.078125 0  0.078125 0.078125 0  0.09375 0.078125 0  0.109375 0.078125 0  0.125 0.078125 0  0.140625 0.078125 0  0.15625 0.078125 0  0.171875 0.078125 0  0.1875 0.078125 0  0.203125 0.078125 0  0.21875 0.078125 0  0.234375 0.078125 0  0.25 0.078125 0  0.265625 0.078125 0  0.28125 0.078125 0  0.296875 0.078125 0  0.3125 0.078125 0  0.328125 0.078125 0  0.34375 0.078125 0  0.359375 0.078125 0  0.375 0.078125 0  0.390625 0.078125 0  0.40625 0.078125 0  0.421875 0.078125 0  0.4375 0.078125 0  0.453125 0.078125 0  0.46875 0.078125 0  0.484375 0.078125 0  0.5 0.078125 0  0.515625 0.078125 0  0.53125 0.078125 0  0.546875 0.078125 0  0.5625 0.078125 0  0.578125 0.078125 0  0.59375 0.078125 0  0.609375 0.078125 0  0.625 0.078125 0  0.640625 0.078125 0  0.65625 0.078125 0  0.671875 0.078125 0  0.6875 0.078125 0  0.703125 0.078125 0  0.71875 0.078125 0  0.734375 0.078125 0  0.75 0.078125 0  0.765625 0.078125 0  0.78125 0.078125 0  0.796875 0.078125 0  0.8125 0.078125 0  0.828125 0.078125 0  0.84375 0.078125 0  0.859375 0.078125 0  0.875 0.078125 0  0.890625 0.078125 0  0.90625 0.078125 0  0.921875 0.078125 0  0.9375 0.078125 0  0.953125 0.078125 0  0.96875 0.078125 0  0.984375 0.078125 0  1 0.078125 0  0 0.09375 0  0.015625 0.09375 0  0.03125 0.09375 0  0.046875 0.09375 0  0.0625 0.09375 0  0.078125 0.09375 0  0.09375 0.09375 0  0.109375 0.09375 0  0.125 0.09375 0  0.140625 0.09375 0  0.15625 0.09375 0  0.171875 0.09375 0  0.1875 0.09375 0  0.203125 0.09375 0  0.21875 0.09375 0  0.234375 0.09375 0  0.25 0.09375 0  0.265625 0.09375 0  0.28125 0.09375 0  0.296875 0.09375 0  0.3125 0.09375 0  0.328125 0.09375 0  0.34375 0.09375 0  0.359375 0.09375 0  0.375 0.09375 0  0.390625 0.09375 0  0.40625 0.09375 0  0.421875 0.09375 0  0.4375 0.09375 0  0.453125 0.09375 0  0.46875 0.09375 0  0.484375 0.09375 0  0.5 0.09375 0  0.515625 0.09375 0  0.53125 0.09375 0  0.546875 0.09375 0  0.5625 0.09375 0  0.578125 0.09375 0  0.59375 0.09375 0  0.609375 0.09375 0  0.625 0.09375 0  0.640625 0.09375 0  0.65625 0.09375 0  0.671875 0.09375 0  0.6875 0.09375 0  0.703125 0.09375 0  0.71875 0.09375 0  0.734375 0.09375 0  0.75 0.09375 0  0.765625 0.09375 0  0.78125 0.09375 0  0.796875 0.09375 0  0.8125 0.09375 0  0.828125 0.09375 0  0.84375 0.09375 0  0.859375 0.09375 0  0.875 0.09375 0  0.890625 0.09375 0  0.90625 0.09375 0  0.921875 0.09375 0  0.9375 0.09375 0  0.953125 0.09375 0  0.96875 0.09375 0  0.984375 0.09375 0  1 0.09375 0  0 0.109375 0  0.015625 0.109375 0  0.03125 0.109375 0  0.046875 0.109375 0  0.0625 0.109375 0  0.078125 0.109375 0  0.09375 0.109375 0  0.109375 0.109375 0  0.125 0.109375 0  0.140625 0.109375 0  0.15625 0.109375 0  0.171875 0.109375 0  0.1875 0.109375 0  0.203125 0.109375 0  0.21875 0.109375 0  0.234375 0.109375 0  0.25 0.109375 0  0.265625 0.109375 0  0.28125 0.109375 0  0.296875 0.109375 0  0.3125 0.109375 0  0.328125 0.109375 0  0.34375 0.109375 0  0.359375 0.109375 0  0.375 0.109375 0  0.390625 0.109375 0  0.40625 0.109375 0  0.421875 0.109375 0  0.4375 0.109375 0  0.453125 0.109375 0  0.46875 0.109375 0  0.484375 0.109375 0  0.5 0.109375 0  0.515625 0.109375 0  0.53125 0.109375 0  0.546875 0.109375 0  0.5625 0.109375 0  0.578125 0.109375 0  0.59375 0.109375 0  0.609375 0.109375 0  0.625 0.109375 0  0.640625 0.109375 0  0.65625 0.109375 0  0.671875 0.109375 0  0.6875 0.109375 0  0.703125 0.109375 0  0.71875 0.109375 0  0.734375 0.109375 0  0.75 0.109375 0  0.765625 0.109375 0  0.78125 0.109375 0  0.796875 0.109375 0  0.8125 0.109375 0  0.828125 0.109375 0  0.84375 0.109375 0  0.859375 0.109375 0  0.875 0.109375 0  0.890625 0.109375 0  0.90625 0.109375 0  0.921875 0.109375 0  0.9375 0.109375 0  0.953125 0.109375 0  0.96875 0.109375 0  0.984375 0.109375 0  1 0.109375 0  0 0.125 0  0.015625 0.125 0  0.03125 0.125 0  0.046875 0.125 0  0.0625 0.125 0  0.078125 0.125 0  0.09375 0.125 0  0.109375 0.125 0  0.125 0.12
[...]
<PointData  Scalars="f_9634"> 
<DataArray  type="Float64"  Name="f_9634"  format="ascii">6.8911167654081202e-05  8.6336304346883234e-05  1.4241921776888124e-04  2.5800472486094882e-04  4.7348565587639220e-04  8.5987530220037981e-04  1.5351967508684130e-03  2.6875705007984216e-03  4.6053771572651756e-03  7.7128641744028037e-03  1.2606275835981543e-02  2.0080987506187455e-02  3.1134877263913993e-02  4.6928913225009909e-02  6.8685317646275987e-02  9.7509810357153587e-02  1.3413969222470978e-01  1.7864370873929222e-01  2.3012831967780975e-01  2.8652912555297855e-01  3.4457390738613164e-01  3.9998477688982065e-01  4.4793837115462576e-01  4.8373353519087964e-01  5.0354570781448560e-01  5.0510197116194422e-01  4.8811132362269066e-01  4.5433706294587606e-01  4.0728847237599874e-01  3.5160803884438602e-01  2.9230501206184012e-01  2.3401272180874103e-01  1.8042091804280261e-01  1.3396981102204164e-01  9.5815161651374450e-02  6.6009371760716279e-02  4.3808258912847113e-02  2.8010071066848326e-02  1.7254340798461117e-02  1.0240263845568680e-02  5.8551040628531271e-03  3.2249623702667123e-03  1.7108210529180059e-03  8.7389246129341528e-04  4.2965526877625422e-04  2.0322057293882667e-04  9.2407186960169485e-05  4.0360048446991441e-05  1.6912717085985016e-05  6.7898532197902815e-06  2.6066542643229174e-06  9.5463302282004084e-07  3.3246800663920206e-07  1.0964656380141313e-07  3.4045562275857361e-08  9.8708821119257309e-09  2.6390321049158665e-09  6.3732466506188803e-10  1.3371683949093929e-10  2.2201281800046417e-11  1.9645836181600885e-12  -3.9745485950896612e-13  -2.5517799349152634e-13  -7.1471229902473584e-14  -2.4168722293899413e-14  5.8389864002083765e-05  7.3598102529809305e-05  1.2299580346978591e-04  2.2557828130616761e-04  4.1846264346549316e-04  7.6763138664386976e-04  1.3839364025749713e-03  2.4460341575323198e-03  4.2309337259135663e-03  7.1509326981099523e-03  1.1792463799052268e-02  1.8947635691729955e-02  2.9623584233543145e-02  4.5009758196488413e-02  6.6381688227079863e-02  9.4925052881888489e-02  1.3147881563333297e-01  1.7622121007126465e-01  2.2835328369464711e-01  2.8586223124121363e-01  3.4545797012092883e-01  4.0275949769032532e-01  4.5275806869077923e-01  4.9051024196851362e-01  5.1193656253667130e-01  5.1454928041182268e-01  4.9792898596566748e-01  4.6382335231360089e-01  4.1583757217055206e-01  3.5879402037647812e-01  2.9792141818673828e-01  2.3806467268143322e-01  1.8307954636979473e-01  1.3550669250677508e-01  9.6535588788014992e-02  6.6198891763178516e-02  4.3699636607104013e-02  2.7770759346259884e-02  1.6989716189089170e-02  1.0005981941299903e-02  5.6724475951529640e-03  3.0949163775684254e-03  1.6247490560028642e-03  8.2040015400833483e-04  3.9824585796084314e-04  1.8572666027918920e-04  8.3141134468747087e-05  3.5684906818255739e-05  1.4663715199281659e-05  5.7579779962599120e-06  2.1551926398624585e-06  7.6641982933786484e-07  2.5779980390798096e-07  8.1515255401679207e-08  2.4010305437734619e-08  6.4955077822776150e-09  1.5750420637089112e-09  3.2582044147387663e-10  5.0204388069379656e-11  2.1937152879679538e-12  -2.1133082940981090e-12  -1.0163735208020035e-12  -2.8383918286798599e-13  -4.7612517044164466e-14  -2.2414643489788010e-15  4.2953500037216915e-05  5.3939452968741535e-05  9.2356571228479985e-05  1.7354329952611150e-04  3.2893136826206822e-04  6.1573506893251449e-04  1.1321068503718915e-03  2.0396613209057125e-03  3.5945279496540365e-03  6.1864634054137708e-03  1.0382425618233115e-02  1.6966060679701338e-02  2.6958147382974681e-02  4.1596679613405317e-02  6.2251833553646815e-02  9.0254539722702948e-02  1.2663157680648499e-01  1.7176648106680723e-01  2.2504069199982082e-01  2.8454345701875611e-01  3.4695724958864854e-01  4.0771282297073635e-01  4.6145696506883788e-01  5.0279336421833487e-01  5.2716584637660968e-01  5.3168680900606180e-01  5.1570202205936522e-01  4.8093835294937343e-01  4.3118960275433899e-01  3.7162126189974859e-01  3.0787363934508222e-01  2.4518162754594733e-01  1.8769994745437787e-01  1.3814266913707479e-01  9.7748582848587881e-02  6.6503358667380441e-02  4.3506467170343455e-02  2.7368921793836775e-02  1.6556021129257598e-02  9.6300324723864513e-03  5.3854731653865543e-03  2.8950736023961453e-03  1.4955687516152341e-03  7.4213327872795138e-04  3.5353990329668175e-04  1.6156534196716174e-04  7.0759526360011070e-05  2.9661952020169213e-05  1.1881987499087666e-05  4.5389006180908851e-06  1.6490016345617535e-06  5.6778654626544953e-07  1.8443290709256538e-07  5.6165719177821790e-08  1.5896814523163557e-08  4.1293832639850225e-09  9.6567466519814660e-10  1.9696067307547548e-10  3.3075244966220263e-11  4.0642320653559856e-12  3.0142341723997573e-13  6.6816910949950922e-14  6.4866109791698715e-14  3.7030795049463570e-14  2.6969711350011518e-14  3.1472794573834320e-05  4.0030412714747280e-05  7.0202308761342872e-05  1.3476152058912940e-04  2.6053550620223795e-04  4.9719685817328221e-04  9.3162709522417498e-04  1.7098825339369012e-03  3.0683890646722089e-03  5.3746670369062182e-03  9.1749329941661836e-03  1.5240856792059262e-02  2.4600714444082898e-02  3.8532496062328808e-02  5.8491164381151699e-02  8.5943689280587612e-02  1.2209851976728710e-01  1.6754351006108018e-01  2.2184548253329450e-01  2.8320559038418158e-01  3.4829064934334364e-01  4.1235320512401663e-01  4.6970110866635112e-01  5.1448585867882279e-01  5.4167286799411341e-01  5.4797479017228057e-01  5.3250815445111233e-01  4.9699105052287640e-01  4.4542173119414130e-01  3.8332314777798054e-01  3.1675438922345395e-01  2.5133691235595057e-01  1.9151056018316021e-01  1.4014219368155062e-01  9.8497921593297816e-02  6.6498170046626268e-02  4.3127498916861608e-02  2.6871240510603616e-02  1.6084979870401184e-02  9.2499741526640925e-03  5.1098254198110645e-03  2.7110557698551327e-03  1.3810622960267731e-03  6.7522759559357352e-04  3.1666537839980557e-04  1.4234168830831701e-04  6.1264471872908737e-05  2.5215286902950336e-05  9.9075050417101012e-06  3.7081455057820921e-06  1.3182267197956625e-06  4.4339611180586830e-07  1.4036643230039172e-07  4.1506009711271765e-08  1.1332357003767563e-08  2.8023389895735879e-09  6.0473109123458178e-10  1.0381767397996262e-10  9.3127665132925086e-12  -2.4149461476175705e-12  -1.7275147864967651e-12  -6.4925288510323977e-13  -1.9423299627765462e-13  -5.0058678321930672e-14  -2.5719484918066979e-14  2.2767440836229392e-05  2.9306665212304383e-05  5.2605972562859005e-05  1.0325484837307864e-04  2.0384495542104269e-04  3.9697096931588479e-04  7.5870698474372390e-04  1.4197580432822382e-03  2.5964024207553206e-03  4.6323299788817154e-03  8.0497775910881204e-03  1.3603296326871631e-02  2.2321923859812666e-02  3.5516551316593745e-02  5.4721798199905781e-02  8.1540664565804277e-02  1.1737148968046798e-01  1.6302452468147763e-01  2.1827851763889361e-01  2.8147623426404278e-01  3.4929309817145748e-01  4.1681278013237277e-01  4.7799188467680420e-01  5.2649528701867898e-01  5.5676060050775333e-01  5.6504951654245028e-01  5.5021085781886536e-01  5.1393885882952661e-01  4.6044734564226830e-01  3.9564844528455279e-01  3.2606110468851235e-01  2.5773157789479179e-01  1.9541131093779041e-01  1.4213128694457233e-01  9.9182913905308520e-02  6.6410926847046886e-02  4.2671615939892285e-02  2.6312588132180858e-02  1.5571159006319038e-02  8.8428385794573870e-03  4.8185977581342377e-03  2.5188813045507420e-03  1.2626896843548623e-03  6.0668323177790590e-04  2.7918511433589805e-04  1.2293291326214472e-04  5.1728952655141490e-05  2.0766136784501759e-05  7.9353552540652918e-06  2.8779073753638796e-06  9.8660341992030344e-07  3.1793787595494004e-07  9.5540442906043505e-08  2.6446885856916774e-08  6.6096158444420801e-09  1.4365690181440620e-09  2.4896679803096023e-10  2.4706826681452357e-11  -3.2869879354548249e-12  -2.3091775969070944e-12  -4.8364314845416851e-13  6.4267942226117504e-14  1.0421033368307876e-13  5.6037107080211128e-14  4.2576508344670594e-14  1.6262513133645876e-05  2.1201123897289349e-05  3.8992168478243003e-05  7.8314558137198916e-05  1.5797166564801899e-04  3.1411714932288049e-04  6.1274166565084432e-04  1.1697966110389686e-03  2.1815263636621902e-03  3.9669094381405718e-03  7.0217399114118123e-03  1.2078948024507237e-02  2.0161813720434480e-02  3.2606502755109179e-02  5.1020640488622121e-02  7.7140711920598876e-02  1.1255990295144033e-01  1.5832552576968828e-01  2.1445192049968798e-01  2.7945136621290978e-01  3.5003158050702332e-01  4.2111711125241486e-01  4.8630207188629576e-01  5.3873189120792120e-01  5.7226953340524722e-01  5.8267866323862483e-01  5.6850816114193969e-01  5.3142125400711193e-01  4.7586662065503860e-01  4.0818350575286727e-01  3.3539408937242682e-01  2.6400508813367668e-01  1.9909917350579970e-01  1.4387348139287609e-01  9.9633330732124756e-02  6.6129914359772460e-02  4.2073563156295311e-02  2.5660915941943450e-02  1.5003674420660138e-02  8.4094292145965466e-03  4.5177339679974109e-03  2.3256970720714398e-03  1.1468247785975266e-03  5.4139213274833817e-04  2.4449340395201732e-04  1.0551664485210709e-04  4.3460369078718218e-05  1.7054143722698672e-05  6.3613878788489219e-06  2.2489870288501915e-06  7.5070338098321514e-07  2.3538810246711227e-07  6.8856652462477052e-08  1.8612694291018949e-08  4.5860682420552916e-09  1.0091973790314961e-09  1.9207290935226387e-10  2.9966616135605824e-11  3.4968611436310275e-12  2.7510733824278835e-13  2.0161065907884141e-14  -1.1102669540801638e-14  -2.3484559554671226e-14  -2.0673413837779716e-14  -2.4209694257384210e-14  1.1462069486646486e-05  1.5143518807096441e-05  2.8560294335495847e-05  5.8733980021448591e-05  1.2112943716722600e-04  2.4610010696700607e-04  4.9031187329854058e-04  9.5566148615551180e-04  1.8186613063167494e-03  3.3729591428152965e-03  6.0857109399198254e-03  1.0663865637356903e-02  1.8118261528168277e-02  2.9802082938380995e-02  4.7388194591511050e-02  7.2742662819720263e-02  1.0765743228586382e-01  1.5343156182896220e-01  2.1034036117921773e-01  2.7709699109694580e-01  3.5046957586845495e-01  4.2523709776815327e-01  4.9462132945802439e-01  5.5121329233347949e-01  5.8824903697164366e-01  6.0094016212509860e-01  5.8749731337558708e-01  5.4954251170355195e-01  4.9177928275872834e-01  4.2101557648497878e-01  3.4482492130038089e-01  2.7021413477981210e-01  2.0261886882481109e-01  1.4540470481092679e-01  9.9878588589422806e-02  6.5679167138408587e-02  4.1352344832128962e-02  2.4930339586886719e-02  1.4392101185631211e-02  7.9554689110252260e-03  4.2100361976234769e-03  2.1323629872102281e-03  1.0332343928160575e-03  4.7865195917922999e-04  2.1180556527032200e-04  8.9418809574136966e-05  3.5958130931413610e-05  1.3744032478672179e-05  4.9789497537648210e-06  1.7028578745748511e-06  5.4686039062776947e-07  1.6360494682696510e-07  4.5041519361146066e-08  1.1174882703687626e-08  2.3967601140174460e-09  3.9847310512061586e-10  2.8432537656509173e-11  -1.3141958150812925e-11  -7.9526702615333058e-12  -2.7891109706047780e-12  -7.5147599193316852e-13  -1.5505193797096414e-13  -1.6123625158746912e-14  7.3780236469192868e-15  1.2797138172896149e-14  7.9663585848055556e-06  1.0673503322924171e-05  2.0660568135942170e-05  4.3532872951360885e-05  9.1852943958649664e-05  1.9081431243343376e-04  3.8856092991364514e-04  7.7375764436978987e-04  1.5037185000914615e-03  2.8464837458224376e-03  5.2387768436117574e-03  9.3575326756873082e-03  1.6194510987684776e-02  2.7111201134957102e-02  4.3836862513925573e-02  6.8361686317283191e-02  1.0267876502427609e-01  1.4835288084862297e-01  2.0594654232641479e-01  2.7440780193239783e-01  3.5059706101666605e-01  4.2916461512945614e-01  5.0295110300574364e-01  5.6395584393891207e-01  6.0473038469451357e-01  6.1987390128136721e-01  6.0721594954521951e-01  5.6832645066462095e-01  5.0818731360568081e-01  4.3412302783769990e-01  3.5431294645316558e-01  2.7630776992714107e-01  2.0591874461487666e-01  1.4668018127847821e-01  9.9884871456331736e-02  6.5036447653477977e-02  4.0495508837559299e-02  2.4115344879450218e-02  1.3735062817420656e-02  7.4815716237524154e-03  3.8967624808919810e-03  1.9401020739501537e-03  9.2286263854182400e-04  4.1910877716887191e-04  1.8153419592522433e-04  7.4893690247009509e-05  2.9376920749703703e-05  1.0929685012228024e-05  3.8448272413043280e-06  1.2734294937268751e-06  3.9481954445409719e-07  1.1367432456281780e-07  3.0044686267222948e-08  7.1663496602429271e-09  1.5029058887081017e-09  2.6663696288815624e-10  3.8780141063727899e-11  5.7691285723446412e-12  2.0608393807999105e-12  1.2009496576621943e-12  5.9245459917935534e-13  2.3223240195876489e-13  7.2540318426123191e-14  1.6242101326373509e-14  3.2122329056875755e-15  5.4560126069213679e-06  7.4183574746219751e-06  1.4751261046575152e-05  3.1867208912114623e-05  6.8839234461877047e-05  1.4632764818695631e-04  3.0478036184310885e-04  6.2054842892248191e-04  1.2324849492805173e-03  2.3830731643887607e-03  4.4772230679908766e-03  8.1581983422484815e-03  1.4392164084042165e-02  2.4539807955739699e-02  4.0376861213542212e-02  6.4010521089072833e-02  9.7635684274789664e-02  1.4309591368629232e-01  2.0126796022331353e-01  2.7137171907002583e-01  3.5039615714138078e-01  4.3288390517080833e-01  5.1128733431914097e-01  5.7697445181390028e-01  6.2174870409120420e-01  6.3952904230981067e-01  6.2771544092714304e-01  5.8781356993004497e-01  5.2511089805123301e-01  4.4750306608518653e-01  3.6383663529810439e-01  2.8225434476729544e-01  2.0896636009997682e-01  1.4767365786777653e-01  9.9635340629031108e-02  6.4194099907775526e-02  3.9502218323306845e-02  2.3218922701815164e-02  1.3036842801297601e-02  6.9917049703990429e-03  3.5808580108784935e-03  1.7507558560361852e-03  8.1667719579506292e-04  3.6316375688780992e-04  1.5377418116270687e-04  6.1903812276434828e-05  2.3642727206945586e-05  8.5429426310912629e-06  2.9093787664657520e-06  9.2897023271898574e-07  2.7603630457442610e-07  7.5476702380798351e-08  1.8645668871076808e-08  4.0217380422284715e-09  6.9866364322589554e-10  7.0750398095000839e-11  -1.0777380386476667e-11  -9.3319641632951574e-12  -3.7770334633725028e-12  -1.3159994105316524e-12  -4.6509873503143343e-13  -1.7351414597735145e-13  -6.4858259605984272e-14  -2.2274250657552049e-14  -1.3169031925192001e-14  3.6794784682569080e-06  5.0806263360509092e-06  1.0387626229329977e-05  2.3023342978666491e-05  5.0955074299397746e-05  1.1091196079049368e-04  2.3647674202508900e-04  4.9267665081455378e-04  1.0008227458722092e-03  1.9782115358478580e-03  3.7969959537612697e-03  7.0635557488148374e-03  1.2712174320180772e-02  2.2093348687097166e-02  3.7018327530324406e-02  5.9702445341800039e-02  9.2541085966604542e-02  1.3766841886618342e-01  1.9630309435607432e-01  2.6797684948263140e-01  3.4984840100654235e-01  4.3637854149816624e-01  5.1962634777782224e-01  5.9028643414020143e-01  6.3934369477995201e-01  6.5996041407284645e-01  6.4905194952389111e-01  6.0804622873949510e-01  5.4256793410195858e-01  4.6114659352466364e-01  3.7336546881722427e-01  2.8801241855782872e-01  2.1172035712860116e-01  1.4835181831853972e-01  9.9108151121549637e-02  6.3141181786707537e-02  3.8369532593254561e-02  2.2242664298408984e-02  1.2300722681646474e-02  6.4890864848705810e-03  3.2647186527987415e-03  1.5657973374616524e-03  7.1543392339260079e-04  3.1112676825282762e-04  1.2860822428964065e-04  5.0441501148169743e-05  1.8726220417525815e-05  6.5591266026735938e-06  2.1580249797689319e-06  6.6285023370698360e-07  1.8840894881204686e-07  4.8907822885588907e-08  1.1350948797452195e-08  2.2682311272527950e-09  3.6065236954762413e-10  3.6421350053955349e-11  1.1432272845832448e-13  2.2004615966818475e-13  9.7618830287872498e-13  7.2815374832348062e-13  3.6976679416657143e-13  1.5723734345135001e-13  6.0729287622473397e-14  2.1959448841376884e-14  1.5037067161464684e-14  2.4414438911473030e-06  3.4261056858691548e-06  7.2089640754519016e-06  1.6404581506968450e-05  3.7224759808165537e-05  8.3035294742611387e-05  1.8137255873974109e-04  3.8697730152108641e-04  8.0469208935269687e-04  1.6273000135396986e-03  3.1937033424633337e-03  6.0706891146685418e-03  1.1154708256023717e-02  1.9776517358924547e-02  3.3770960016766063e-02  5.5450810532478224e-02  8.7408392046778291e-02  1.3207871761438289e-01  1.9105035870127882e-01  2.6421004941824666e-01  3.4893290798141485e-01  4.3962936167459166e-01  5.2796290760925524e-01  6.0391014186311687e-01  6.5755916077114762e-01  6.8122908620623424e-01  6.7128795369895866e-01  6.2907094600950120e-01  5.6057699590800814e-01  4.7504185883897515e-01  3.8286436571030380e-01  2.9353597412921106e-01  2.1413628746563751e-01  1.4868035481509170e-01  9.8282308507275110e-02  6.1868690580347517e-02  3.7096729225533150e-02  2.1190085154164685e-02  1.1531362619193726e-02  5.9777682755293680e-03  2.9511623282471181e-03  1.3868659362625154e-03  6.1992450807121520e-04  2.6329102718203714e-04  1.0608925023448922e-04  4.0471612294005441e-05  1.4576751234054614e-05  4.9380019480009816e-06  1.5651000316646168e-06  4.6068019092778427e-07  1.2454809408302536e-07  3.0393527942366968e-08  6.4921491092453943e-09  1.1371036494790432e-09  1.3296404929299379e-10  -3.2571832837470577e-12  -7.5109713492666416e-12  -2.7846947370544387e-12  -8.6791403083213242e-13  -3.3675263669726000e-13  -1.6885915655294689e-13  -8.7737402142086876e-14  -4.1991353353853911e-14  -1.8277008366789033e-14  -1.4307370715357097e-14  1.5925271997293857e-06  2.2729972462530943e-06  4.9265430285464709e-06  1.1518165233540729e-05  2.6818104748189123e-05  6.1354891087987194e-05  1.3741004695131323e-04  3.0049832851997870e-04  6.4019241081567319e-04  1.3257151614300005e-03  2.6626783106923021e-03  5.1761244463066035e-03  9.7191678327443465e-03  1.7593253077039822e-02  3.0644019680278689e-02  5.1269097743894536e-02  8.2251702657702291e-02  1.2633592674077662e-01  1.8550832246566032e-01  2.6005699730662513e-01  3.4762621178137015e-01  4.4261413462535426e-01  5.3628993216587673e-01  6.1786498019922520e-01  6.7644344818719893e-01  7.0340304868927561e-01  6.9449275666005605e-01  6.5093830031328126e-01  5.7915640823724734e-01  4.8917282049594762e-01  3.9229169429873484e-01  2.9877247658041522e-01  2.1616497261225154e-01  1.4862267945691676e-01  9.7136640203708324e-02  6.0368669343410411e-02  3.5684468932585395e-02  2.0065840655782503e-02  1.0734103661057762e-02  5.4620669505906208e-03  2.6430069890370808e-03  1.2154870441610450e-03  5.3081191873050027e-04  2.1985145065368081e-04  8.6210883315609069e-05  3.1930400014608257e-05  1.1133807964915399e-05  3.6386409082642391e-06  1.1075792880292849e-06  3.1119251129946307e-07  7.9607543666599898e-08  1.8130685211868289e-08  3.5269003165026250e-09  5.3257022470021064e-10  4.3127636122915449e-11  -5.5603236088970536e-12  -2.4502632747723601e-12  5.4796144074263552e-14  4.0336615971396738e-13  2.5030358722306449e-13  1.1878542476922401e-13  5.3907740569644213e-14  2.4894428963131777e-14  1.1616036544449503e-14  1.0229071650576707e-14  1.0202596851977995e-06  1.4822647811168738e-06  3.3123816458450336e-06  7.9623963304631646e-06  1.9037342658354816e-05  4.4707351232112206e-05  1.0275017368364298e-04  2.3051489502071788e-04  5.0359632531665473e-04  1.0688606445530943e-03  2.1990366008696415e-03  4.3758715069619558e-03  8.4041954126340603e-03  1.5546702502531252e-02  2.7646273900289717e-02  4.7170891674537085e-02  7.7085837754736056e-02  1.2045003806614907e-01  1.7967569319701301e-01  2.5550187397033230e-01  3.4590147611698691e-01  4.4530631414359950e-01  5.4459702307746360e-01  6.3217005759001732e-01  6.9604844483348371e-01  7.2655650658151083e-01  7.1874176214136654e-01  6.7370184209821371e-01  5.9832268541828371e-01  5.0351733985113567e-01  4.0159765589950441e-01  3.0366183833166432e-01  2.1775219974856738e-01  1.4814022768149551e-01  9.5650426126343696e-02  5.8634885189918627e-02  3.4135345990914445e-02  1.8876095276693344e-02  9.9151839359359981e-03  4.9466830188138284e-03  2.3431410411681049e-03  1.0531207346688308e-03  4.4866776551203856e-04  1.8093261349348442e-04  6.8926037844679359e-05  2.4735685356900937e-05  8.3308245590469499e-06  2.619283788030