<?xml version="1.0"?>
<VTKFile type="UnstructuredGrid"  version="0.1"  >
<UnstructuredGrid>
<Piece  NumberOfPoints="4225" NumberOfCells="8192">
<Points>
<DataArray  type="Float64"  NumberOfComponents="3"  format="ascii">0 0 0  0.015625 0 0  0.03125 0 0  0.046875 0 0  0.0625 0 0  0.078125 0 0  0.09375 0 0  0.109375 0 0  0.125 0 0  0.140625 0 0  0.15625 0 0  0.171875 0 0  0.1875 0 0  0.203125 0 0  0.21875 0 0  0.234375 0 0  0.25 0 0  0.265625 0 0  0.28125 0 0  0.296875 0 0  0.3125 0 0  0.328125 0 0  0.34375 0 0  0.359375 0 0  0.375 0 0  0.390625 0 0  0.40625 0 0  0.421875 0 0  0.4375 0 0  0.453125 0 0  0.46875 0 0  0.484375 0 0  0.5 0 0  0.515625 0 0  0.53125 0 0  0.546875 0 0  0.5625 0 0  0.578125 0 0  0.59375 0 0  0.609375 0 0  0.625 0 0  0.640625 0 0  0.65625 0 0  0.671875 0 0  0.6875 0 0  0.703125 0 0  0.71875 0 0  0.734375 0 0  0.75 0 0  0.765625 0 0  0.78125 0 0  0.796875 0 0  0.8125 0 0  0.828125 0 0  0.84375 0 0  0.859375 0 0  0.875 0 0  0.890625 0 0  0.90625 0 0  0.921875 0 0  0.9375 0 0  0.953125 0 0  0.96875 0 0  0.984375 0 0  1 0 0  0 0.015625 0  0.015625 0.015625 0  0.03125 0.015625 0  0.046875 0.015625 0  0.0625 0.015625 0  0.078125 0.015625 0  0.09375 0.015625 0  0.109375 0.015625 0  0.125 0.015625 0  0.140625 0.015625 0  0.15625 0.015625 0  0.171875 0.015625 0  0.1875 0.015625 0  0.203125 0.015625 0  0.21875 0.015625 0  0.234375 0.015625 0  0.25 0.015625 0  0.265625 0.015625 0  0.28125 0.015625 0  0.296875 0.015625 0  0.3125 0.015625 0  0.328125 0.015625 0  0.34375 0.015625 0  0.359375 0.015625 0  0.375 0.015625 0  0.390625 0.015625 0  0.40625 0.015625 0  0.421875 0.015625 0  0.4375 0.015625 0  0.453125 0.015625 0  0.46875 0.015625 0  0.484375 0.015625 0  0.5 0.015625 0  0.515625 0.015625 0  0.53125 0.015625 0  0.546875 0.015625 0  0.5625 0.015625 0  0.578125 0.015625 0  0.59375 0.015625 0  0.609375 0.015625 0  0.625 0.015625 0  0.640625 0.015625 0  0.65625 0.015625 0  0.671875 0.015625 0  0.6875 0.015625 0  0.703125 0.015625 0  0.71875 0.015625 0  0.734375 0.015625 0  0.75 0.015625 0  0.765625 0.015625 0  0.78125 0.015625 0  0.796875 0.015625 0  0.8125 0.015625 0  0.828125 0.015625 0  0.84375 0.015625 0  0.859375 0.015625 0  0.875 0.015625 0  0.890625 0.015625 0  0.90625 0.015625 0  0.921875 0.015625 0  0.9375 0.015625 0  0.953125 0.015625 0  0.96875 0.015625 0  0.984375 0.015625 0  1 0.015625 0  0 0.03125 0  0.015625 0.03125 0  0.03125 0.03125 0  0.046875 0.03125 0  0.0625 0.03125 0  0.078125 0.03125 0  0.09375 0.03125 0  0.109375 0.03125 0  0.125 0.03125 0  0.140625 0.03125 0  0.15625 0.03125 0  0.171875 0.03125 0  0.1875 0.03125 0  0.203125 0.03125 0  0.21875 0.03125 0  0.234375 0.03125 0  0.25 0.03125 0  0.265625 0.03125 0  0.28125 0.03125 0  0.296875 0.03125 0  0.3125 0.03125 0  0.328125 0.03125 0  0.34375 0.03125 0  0.359375 0.03125 0  0.375 0.03125 0  0.390625 0.03125 0  0.40625 0.03125 0  0.421875 0.03125 0  0.4375 0.03125 0  0.453125 0.03125 0  0.46875 0.03125 0  0.484375 0.03125 0  0.5 0.03125 0  0.515625 0.03125 0  0.53125 0.03125 0  0.546875 0.03125 0  0.5625 0.03125 0  0.578125 0.03125 0  0.59375 0.03125 0  0.609375 0.03125 0  0.625 0.03125 0  0.640625 0.03125 0  0.65625 0.03125 0  0.671875 0.03125 0  0.6875 0.03125 0  0.703125 0.03125 0  0.71875 0.03125 0  0.734375 0.03125 0  0.75 0.03125 0  0.765625 0.03125 0  0.78125 0.03125 0  0.796875 0.03125 0  0.8125 0.03125 0  0.828125 0.03125 0  0.84375 0.03125 0  0.859375 0.03125 0  0.875 0.03125 0  0.890625 0.03125 0  0.90625 0.03125 0  0.921875 0.03125 0  0.9375 0.03125 0  0.953125 0.03125 0  0.96875 0.03125 0  0.984375 0.03125 0  1 0.03125 0  0 0.046875 0  0.015625 0.046875 0  0.03125 0.046875 0  0.046875 0.046875 0  0.0625 0.046875 0  0.078125 0.046875 0  0.09375 0.046875 0  0.109375 0.046875 0  0.125 0.046875 0  0.140625 0.046875 0  0.15625 0.046875 0  0.171875 0.046875 0  0.1875 0.046875 0  0.203125 0.046875 0  0.21875 0.046875 0  0.234375 0.046875 0  0.25 0.046875 0  0.265625 0.046875 0  0.28125 0.046875 0  0.296875 0.046875 0  0.3125 0.046875 0  0.328125 0.046875 0  0.34375 0.046875 0  0.359375 0.046875 0  0.375 0.046875 0  0.390625 0.046875 0  0.40625 0.046875 0  0.421875 0.046875 0  0.4375 0.046875 0  0.453125 0.046875 0  0.46875 0.046875 0  0.484375 0.046875 0  0.5 0.046875 0  0.515625 0.046875 0  0.53125 0.046875 0  0.546875 0.046875 0  0.5625 0.046875 0  0.578125 0.046875 0  0.59375 0.046875 0  0.609375 0.046875 0  0.625 0.046875 0  0.640625 0.046875 0  0.65625 0.046875 0  0.671875 0.046875 0  0.6875 0.046875 0  0.703125 0.046875 0  0.71875 0.046875 0  0.734375 0.046875 0  0.75 0.046875 0  0.765625 0.046875 0  0.78125 0.046875 0  0.796875 0.046875 0  0.8125 0.046875 0  0.828125 0.046875 0  0.84375 0.046875 0  0.859375 0.046875 0  0.875 0.046875 0  0.890625 0.046875 0  0.90625 0.046875 0  0.921875 0.046875 0  0.9375 0.046875 0  0.953125 0.046875 0  0.96875 0.046875 0  0.984375 0.046875 0  1 0.046875 0  0 0.0625 0  0.015625 0.0625 0  0.03125 0.0625 0  0.046875 0.0625 0  0.0625 0.0625 0  0.078125 0.0625 0  0.09375 0.0625 0  0.109375 0.0625 0  0.125 0.0625 0  0.140625 0.0625 0  0.15625 0.0625 0  0.171875 0.0625 0  0.1875 0.0625 0  0.203125 0.0625 0  0.21875 0.0625 0  0.234375 0.0625 0  0.25 0.0625 0  0.265625 0.0625 0  0.28125 0.0625 0  0.296875 0.0625 0  0.3125 0.0625 0  0.328125 0.0625 0  0.34375 0.0625 0  0.359375 0.0625 0  0.375 0.0625 0  0.390625 0.0625 0  0.40625 0.0625 0  0.421875 0.0625 0  0.4375 0.0625 0  0.453125 0.0625 0  0.46875 0.0625 0  0.484375 0.0625 0  0.5 0.0625 0  0.515625 0.0625 0  0.53125 0.0625 0  0.546875 0.0625 0  0.5625 0.0625 0  0.578125 0.0625 0  0.59375 0.0625 0  0.609375 0.0625 0  0.625 0.0625 0  0.640625 0.0625 0  0.65625 0.0625 0  0.671875 0.0625 0  0.6875 0.0625 0  0.703125 0.0625 0  0.71875 0.0625 0  0.734375 0.0625 0  0.75 0.0625 0  0.765625 0.0625 0  0.78125 0.0625 0  0.796875 0.0625 0  0.8125 0.0625 0  0.828125 0.0625 0  0.84375 0.0625 0  0.859375 0.0625 0  0.875 0.0625 0  0.890625 0.0625 0  0.90625 0.0625 0  0.921875 0.0625 0  0.9375 0.0625 0  0.953125 0.0625 0  0.96875 0.0625 0  0.984375 0.0625 0  1 0.0625 0  0 0.078125 0  0.015625 0.078125 0  0.03125 0.078125 0  0.046875 0.078125 0  0.0625 0.078125 0  0.078125 0.078125 0  0.09375 0.078125 0  0.109375 0.078125 0  0.125 0.078125 0  0.140625 0.078125 0  0.15625 0.078125 0  0.171875 0.078125 0  0.1875 0.078125 0  0.203125 0.078125 0  0.21875 0.078125 0  0.234375 0.078125 0  0.25 0.078125 0  0.265625 0.078125 0  0.28125 0.078125 0  0.296875 0.078125 0  0.3125 0.078125 0  0.328125 0.078125 0  0.34375 0.078125 0  0.359375 0.078125 0  0.375 0.078125 0  0.390625 0.078125 0  0.40625 0.078125 0  0.421875 0.078125 0  0.4375 0.078125 0  0.453125 0.078125 0  0.46875 0.078125 0  0.484375 0.078125 0  0.5 0.078125 0  0.515625 0.078125 0  0.53125 0.078125 0  0.546875 0.078125 0  0.5625 0.078125 0  0.578125 0.078125 0  0.59375 0.078125 0  0.609375 0.078125 0  0.625 0.078125 0  0.640625 0.078125 0  0.65625 0.078125 0  0.671875 0.078125 0  0.6875 0.078125 0  0.703125 0.078125 0  0.71875 0.078125 0  0.734375 0.078125 0  0.75 0.078125 0  0.765625 0.078125 0  0.78125 0.078125 0  0.796875 0.078125 0  0.8125 0.078125 0  0.828125 0.078125 0  0.84375 0.078125 0  0.859375 0.078125 0  0.875 0.078125 0  0.890625 0.078125 0  0.90625 0.078125 0  0.921875 0.078125 0  0.9375 0.078125 0  0.953125 0.078125 0  0.96875 0.078125 0  0.984375 0.078125 0  1 0.078125 0  0 0.09375 0  0.015625 0.09375 0  0.03125 0.09375 0  0.046875 0.09375 0  0.0625 0.09375 0  0.078125 0.09375 0  0.09375 0.09375 0  0.109375 0.09375 0  0.125 0.09375 0  0.140625 0.09375 0  0.15625 0.09375 0  0.171875 0.09375 0  0.1875 0.09375 0  0.203125 0.09375 0  0.21875 0.09375 0  0.234375 0.09375 0  0.25 0.09375 0  0.265625 0.09375 0  0.28125 0.09375 0  0.296875 0.09375 0  0.3125 0.09375 0  0.328125 0.09375 0  0.34375 0.09375 0  0.359375 0.09375 0  0.375 0.09375 0  0.390625 0.09375 0  0.40625 0.09375 0  0.421875 0.09375 0  0.4375 0.09375 0  0.453125 0.09375 0  0.46875 0.09375 0  0.484375 0.09375 0  0.5 0.09375 0  0.515625 0.09375 0  0.53125 0.09375 0  0.546875 0.09375 0  0.5625 0.09375 0  0.578125 0.09375 0  0.59375 0.09375 0  0.609375 0.09375 0  0.625 0.09375 0  0.640625 0.09375 0  0.65625 0.09375 0  0.671875 0.09375 0  0.6875 0.09375 0  0.703125 0.09375 0  0.71875 0.09375 0  0.734375 0.09375 0  0.75 0.09375 0  0.765625 0.09375 0  0.78125 0.09375 0  0.796875 0.09375 0  0.8125 0.09375 0  0.828125 0.09375 0  0.84375 0.09375 0  0.859375 0.09375 0  0.875 0.09375 0  0.890625 0.09375 0  0.90625 0.09375 0  0.921875 0.09375 0  0.9375 0.09375 0  0.953125 0.09375 0  0.96875 0.09375 0  0.984375 0.09375 0  1 0.09375 0  0 0.109375 0  0.015625 0.109375 0  0.03125 0.109375 0  0.046875 0.109375 0  0.0625 0.109375 0  0.078125 0.109375 0  0.09375 0.109375 0  0.109375 0.109375 0  0.125 0.109375 0  0.140625 0.109375 0  0.15625 0.109375 0  0.171875 0.109375 0  0.1875 0.109375 0  0.203125 0.109375 0  0.21875 0.109375 0  0.234375 0.109375 0  0.25 0.109375 0  0.265625 0.109375 0  0.28125 0.109375 0  0.296875 0.109375 0  0.3125 0.109375 0  0.328125 0.109375 0  0.34375 0.109375 0  0.359375 0.109375 0  0.375 0.109375 0  0.390625 0.109375 0  0.40625 0.109375 0  0.421875 0.109375 0  0.4375 0.109375 0  0.453125 0.109375 0  0.46875 0.109375 0  0.484375 0.109375 0  0.5 0.109375 0  0.515625 0.109375 0  0.53125 0.109375 0  0.546875 0.109375 0  0.5625 0.109375 0  0.578125 0.109375 0  0.59375 0.109375 0  0.609375 0.109375 0  0.625 0.109375 0  0.640625 0.109375 0  0.65625 0.109375 0  0.671875 0.109375 0  0.6875 0.109375 0  0.703125 0.109375 0  0.71875 0.109375 0  0.734375 0.109375 0  0.75 0.109375 0  0.765625 0.109375 0  0.78125 0.109375 0  0.796875 0.109375 0  0.8125 0.109375 0  0.828125 0.109375 0  0.84375 0.109375 0  0.859375 0.109375 0  0.875 0.109375 0  0.890625 0.109375 0  0.90625 0.109375 0  0.921875 0.109375 0  0.9375 0.109375 0  0.953125 0.109375 0  0.96875 0.109375 0  0.984375 0.109375 0  1 0.109375 0  0 0.125 0  0.015625 0.125 0  0.03125 0.125 0  0.046875 0.125 0  0.0625 0.125 0  0.078125 0.125 0  0.09375 0.125 0  0.109375 0.125 0  0.125 0.12
[...]
<PointData  Scalars="f_9634"> 
<DataArray  type="Float64"  Name="f_9634"  format="ascii">-3.7604445443919321e-21  -3.7789785694747632e-21  -3.8303472976550645e-21  -4.0229541097116228e-21  -3.9411329116102255e-21  -2.5910309720232816e-21  -3.2220526821753985e-21  -1.4189152230538609e-20  -1.5176912222075594e-20  5.6335220449921173e-20  1.0525316548221769e-19  -2.7009430972576354e-19  -7.9579988347790952e-19  7.3848878967969656e-19  4.9525583806484893e-18  3.8372366021154478e-18  -9.0387816495475671e-18  -9.7458753758560402e-19  1.0654239500974273e-16  3.4329131026909679e-16  6.0894687369992729e-16  9.0379712845320798e-16  1.8892564094543655e-15  5.1158143056478550e-15  1.2155662306732581e-14  2.3115366897751732e-14  3.6674258605291975e-14  5.3804952363316990e-14  8.4704001875346201e-14  1.5481951779109670e-13  3.0442417958590655e-13  5.7937605867289213e-13  1.0186725939623984e-12  1.6551964507810673e-12  2.5568605443929186e-12  3.9436123513823223e-12  6.4197035281713045e-12  1.1359447381616287e-11  2.1478363246327325e-11  4.1610765629108894e-11  7.9700575882470007e-11  1.4799577493271248e-10  2.6441999263622783e-10  4.5407859923964686e-10  7.5084310764898392e-10  1.1989458321325456e-09  1.8545148079688642e-09  2.7869594680529210e-09  4.0801788429067194e-09  5.8333757228816660e-09  8.1618738041323082e-09  1.1196571870901265e-08  1.5085602154378368e-08  1.9988979784745093e-08  2.6088114818483250e-08  3.3562262463559834e-08  4.2627177336221882e-08  5.3469760781592377e-08  6.6315735528849270e-08  8.1421567098741149e-08  9.8809270048132364e-08  1.1926615911711943e-07  1.4142352477757466e-07  1.7112573462800125e-07  1.9197371018923603e-07  -3.8589869453370044e-21  -3.8889812237567355e-21  -3.9627348036753353e-21  -4.0378574625425472e-21  -3.7225799688299206e-21  -3.3824984103876087e-21  -6.4677094717935467e-21  -1.0729937895370468e-20  1.0581570093070868e-20  5.3707903305218923e-20  -4.4091399731034164e-20  -2.9274811599179543e-19  4.2141303843074012e-19  3.7189744003338196e-18  8.3578825790760081e-18  1.5308752848248926e-17  5.6843633190423774e-17  2.2709380031589838e-16  6.6058027269425032e-16  1.5121379765241928e-15  3.1675518589319155e-15  6.7712559785108131e-15  1.4593149071471920e-14  2.9561542518905922e-14  5.4340212624823324e-14  9.1946211780076841e-14  1.4996378964039245e-13  2.4782634284349984e-13  4.2331228073519275e-13  7.3397183184860916e-13  1.2539378870204863e-12  2.0756629867780226e-12  3.3365770212376552e-12  5.2993272641295913e-12  8.5191535537832892e-12  1.4132388314236377e-11  2.4296235452635458e-11  4.2802462836602926e-11  7.5877201761278507e-11  1.3316654968339419e-10  2.2889407604202992e-10  3.8316264792074346e-10  6.2336025185028566e-10  9.8561855469108984e-10  1.5162648962776668e-09  2.2732025184849071e-09  3.3271554972978571e-09  4.7627046774642032e-09  6.6790891789157834e-09  9.1906108931273346e-09  1.2426955529203554e-08  1.6532342529414437e-08  2.1666481849290100e-08  2.7999391186728407e-08  3.5719798161664444e-08  4.5011788281508083e-08  5.6095377059241019e-08  6.9150142191844842e-08  8.4416044387884028e-08  1.0210608520339343e-07  1.2229915794935232e-07  1.4566195244090993e-07  1.7109637488719202e-07  2.0263506239995591e-07  2.2672303326667728e-07  -4.2372516381966383e-21  -4.3011808467456795e-21  -4.3797320488720280e-21  -4.2612240798952159e-21  -4.0096848047190962e-21  -5.7786419475297481e-21  -9.2520155892767697e-21  4.9942318904776792e-21  4.4933124707479076e-20  -6.2526110029995579e-21  -1.3007428758492865e-19  1.0361027293591440e-18  6.7970942379431315e-18  2.1811749150630326e-17  6.7029894871353139e-17  2.4517163399930514e-16  8.5950037564908451e-16  2.5539083038731276e-15  6.6138780717826667e-15  1.5882767594172421e-14  3.6503766096267466e-14  7.9579197468380709e-14  1.6143134308910722e-13  3.0353477114847991e-13  5.3688829304973746e-13  9.1532609814676754e-13  1.5356639894543441e-12  2.5558859613178067e-12  4.2062743304095541e-12  6.8064622877963501e-12  1.0826539869603878e-11  1.7049761354069472e-11  2.6899014348474715e-11  4.2977957706405890e-11  6.9855545774695924e-11  1.1509613827818980e-10  1.9051182326717796e-10  3.1359202402019115e-10  5.0904921276629815e-10  8.1040888084457226e-10  1.2615666114693642e-09  1.9182347534644059e-09  2.8492052730331817e-09  4.1373631322761665e-09  5.8803955247626499e-09  8.1911543048100982e-09  1.1197646587652943e-08  1.5042629069978168e-08  1.9882846987127466e-08  2.5887790623419898e-08  3.3238459439038697e-08  4.2124710686720727e-08  5.2745553173586956e-08  6.5300376653312512e-08  8.0002758417811443e-08  9.7039680311396712e-08  1.1665079263768510e-07  1.3896769718009815e-07  1.6427431559169768e-07  1.9266402116482637e-07  2.2423365389434533e-07  2.5972280637150702e-07  2.9734940302632378e-07  3.4239813825833739e-07  3.7958879261772534e-07  -5.1876041670240034e-21  -5.2910239144806090e-21  -5.3184206562731356e-21  -5.1791703906360812e-21  -6.0207925424480970e-21  -8.8237009941657789e-21  -1.2654706268643757e-21  3.6207412487915212e-20  5.0036839254081093e-20  1.2469300512073232e-19  2.0663731188574990e-18  1.2785812408809888e-17  5.2772648637357303e-17  2.0156058098200456e-16  7.7513323321442315e-16  2.7820695441679000e-15  8.8840192223969362e-15  2.5492096111218408e-14  6.7378253363036595e-14  1.6604328765373894e-13  3.8084463443281184e-13  8.0992202697630039e-13  1.6014294605570195e-12  2.9738240102142603e-12  5.2564119083673832e-12  8.9508607864150332e-12  1.4803899203706382e-11  2.3896320973254151e-11  3.7802210079617327e-11  5.8931273286103022e-11  9.1198498230767227e-11  1.4114742696280166e-10  2.1959252817243244e-10  3.4376585432434128e-10  5.3987686633059766e-10  8.4593635170455243e-10  1.3146604826795318e-09  2.0162578057190601e-09  3.0409063236357836e-09  4.5007456622188887e-09  6.5312372156360771e-09  9.2917804379290609e-09  1.2965513648130714e-08  1.7758270247538231e-08  2.3896703797203008e-08  3.1625633977650570e-08  4.1204704091194369e-08  5.2904451877119548e-08  6.7001979669699502e-08  8.3776185999994185e-08  1.0350334560365826e-07  1.2645110525201290e-07  1.5287746429360186e-07  1.8301607700230336e-07  2.1709960792053469e-07  2.5528831724446714e-07  2.9782231543680926e-07  3.4469481010869770e-07  3.9625243228688116e-07  4.5224852653063892e-07  5.1291634013013939e-07  5.7881617114915443e-07  6.4710707562761759e-07  7.2597687992879058e-07  7.9360289924715706e-07  -7.2248408929626928e-21  -7.3980526853336692e-21  -7.4700538059497823e-21  -7.8989470802722907e-21  -9.6888750140846366e-21  -6.3688868821850194e-21  2.4007322195436442e-20  9.2338613970357894e-20  4.4073080213603130e-19  3.6260142547914157e-18  2.2334901082021453e-17  1.0792425739514668e-16  4.7435853454823676e-16  1.9756048949558726e-15  7.5793166088995999e-15  2.6270215220813155e-14  8.2604077439606990e-14  2.3817027436498176e-13  6.3325154168431184e-13  1.5536568563219682e-12  3.5194589710779391e-12  7.3885555978620011e-12  1.4475214299454926e-11  2.6692439385267771e-11  4.6727695734304596e-11  7.8277066914970583e-11  1.2643456509887232e-10  1.9845585656524598e-10  3.0520973016497312e-10  4.6360746646310600e-10  7.0014724117543742e-10  1.0554972106035194e-09  1.5898511451532452e-09  2.3886673874251914e-09  3.5683464554220635e-09  5.2814002727946456e-09  7.7207031841999468e-09  1.1122479860218859e-08  1.5767766372707243e-08  2.1982168531683489e-08  3.0133830331208367e-08  4.0629612542665557e-08  5.3909565458288084e-08  7.0439857957043374e-08  9.0704394275223837e-08  1.1519540486301215e-07  1.4440334247283716e-07  1.7880641732886618e-07  2.1886018823835815e-07  2.6498731356657958e-07  3.1756862560600754e-07  3.7693290902678280e-07  4.4335493443417057e-07  5.1703347770316999e-07  5.9813122452545680e-07  6.8665563222163339e-07  7.8273889692314944e-07  8.8600902410268568e-07  9.9686348082059474e-07  1.1142081942096253e-06  1.2387647811656573e-06  1.3699935538970570e-06  1.5041657646331277e-06  1.6536957198479028e-06  1.7830061357590385e-06  -1.1459423779368043e-20  -1.1864068220101981e-20  -1.2353223938012170e-20  -1.3513488072944316e-20  -1.2326373327001797e-20  9.9608699690341784e-21  1.0832911433617108e-19  7.0399391673161248e-19  5.2823795718787590e-18  3.3942090801578985e-17  1.8450006740501432e-16  9.0760460114427406e-16  4.1302449045870926e-15  1.7201106698191156e-14  6.5021622420110092e-14  2.2354399943884056e-13  7.0259443412327120e-13  2.0250922464230468e-12  5.3597162332858084e-12  1.3046483387470565e-11  2.9303356864247574e-11  6.1030304387661893e-11  1.1856529032376104e-10  2.1626060883220692e-10  3.7295138994581422e-10  6.1283565247826598e-10  9.6778336639152990e-10  1.4822143497131076e-09  2.2211410493551229e-09  3.2809716967883449e-09  4.8018019437533697e-09  6.9796407902917194e-09  1.0077287901434239e-08  1.4433040261463720e-08  2.0466744933493883e-08  2.8682870235920137e-08  3.9670343646444432e-08  5.4099000632774580e-08  7.2712626047574576e-08  9.6318721486128697e-08  1.2577527109194612e-07  1.6197489619628206e-07  2.0582688799295893e-07  2.5823768849050311e-07  3.2009045059860464e-07  3.9222434172686324e-07  4.7541426540471531e-07  5.7035162730579652e-07  6.7762681153595505e-07  7.9771358353773975e-07  9.3095693785167831e-07  1.0775607940231970e-06  1.2375888480008237e-06  1.4109369559411676e-06  1.5974023431513585e-06  1.7964948552494041e-06  2.0079315633306199e-06  2.2304834812308611e-06  2.4645109222611181e-06  2.7070370691308668e-06  2.9601220836106040e-06  3.2197484030658130e-06  3.4831746886584377e-06  3.7665420095642790e-06  4.0115717724301762e-06  -2.0504963984907011e-20  -2.1518257553187328e-20  -2.2744901180797251e-20  -2.2809056239474443e-20  -8.1141174444796180e-21  9.2160830538694597e-20  8.0709696873216349e-19  6.3108193794567282e-18  4.3455424240892548e-17  2.6186157946018178e-16  1.4267640083281320e-15  7.1176383661062880e-15  3.2380494732689051e-14  1.3385576625226597e-13  5.0338749111875928e-13  1.7269488316720697e-12  5.4153563307556984e-12  1.5542010520137931e-11  4.0891050776566606e-11  9.8880070969102252e-11  2.2053658714285680e-10  4.5561661801477512e-10  8.7621535465254225e-10  1.5776363053597015e-09  2.6774410629473239e-09  4.3167799803829544e-09  6.6698711524856701e-09  9.9654726924802999e-09  1.4518691684140341e-08  2.0765947368491816e-08  2.9294158549640760e-08  4.0858090118768541e-08  5.6384723736035307e-08  7.6967169913489757e-08  1.0385152986837930e-07  1.3841903057039865e-07  1.8216431232344362e-07  2.3666996440801385e-07  3.0357736424955437e-07  3.8455419407202766e-07  4.8125934176817635e-07  5.9530611036681585e-07  7.2822477449930459e-07  8.8142557305720782e-07  1.0561632345671173e-06  1.2535040942673401e-06  1.4742967837687810e-06  1.7191473200394676e-06  1.9883993617138269e-06  2.2821197627117868e-06  2.6000910932704378e-06  2.9418060951695372e-06  3.3064818303154300e-06  3.6930339793511533e-06  4.1001966887202728e-06  4.5262373723043597e-06  4.9697970368172937e-06  5.4278644488331424e-06  5.9005598887974985e-06  6.3811126485347835e-06  6.8748216302980570e-06  7.3688429927706981e-06  7.8678193754345855e-06  8.3846723631017873e-06  8.8328480700400490e-06  -4.0407270122992326e-20  -4.2568630399631586e-20  -4.4019291653422228e-20  -3.6126265084372919e-20  4.4236082608431440e-20  7.1146209255328587e-19  6.1686758447885750e-18  4.6241696865766392e-17  3.0742217242636321e-16  1.8478933337788657e-15  1.0121189769193400e-14  5.0447381381861677e-14  2.2846859407635015e-13  9.4086289263406544e-13  3.5290059004329517e-12  1.2072377639617689e-11  3.7708019499048699e-11  1.0769104701092550e-10  2.8176355773524768e-10  6.7711790378537079e-10  1.4992438791670053e-09  3.0698798465582434e-09  5.8391887776145115e-09  1.0373437845331402e-08  1.7324542535985215e-08  2.7406432058513628e-08  4.1409700003150700e-08  6.0269715540620428e-08  8.5171417475169727e-08  1.1764864427170820e-07  1.5963584452502562e-07  2.1345429777352731e-07  2.8174484996049115e-07  3.6737546569454156e-07  4.7334929537351980e-07  6.0272571434534938e-07  7.5855438499166196e-07  9.4381673610071000e-07  1.1613695911000987e-06  1.4138884587228564e-06  1.7038105021457171e-06  2.0332785494762994e-06  2.4040879498491850e-06  2.8176380824275189e-06  3.2748901710450717e-06  3.7763328347091314e-06  4.3219565333911082e-06  4.9112377142713867e-06  5.5431332224994495e-06  6.2160846498547344e-06  6.9280340499838395e-06  7.6764439438572081e-06  8.4583443819095109e-06  9.2703244032336351e-06  1.0108733525887966e-05  1.0969266893069747e-05  1.1848337118950857e-05  1.2739651090193637e-05  1.3642817613404178e-05  1.4544070784950492e-05  1.5455955303575269e-05  1.6345845505012534e-05  1.7242584317065042e-05  1.8131607152561717e-05  1.8912218880701420e-05  -8.5105636789056405e-20  -8.8817062348435403e-20  -8.7038335319717130e-20  -3.5852620483042617e-20  4.6369923741425665e-19  4.9107438814160272e-18  4.0647080178026869e-17  2.9789769275820329e-16  1.9727791476508348e-15  1.1874221700984880e-14  6.4952548111961260e-14  3.2269016401594409e-13  1.4568426115866484e-12  5.9832813879326077e-12  2.2376384321470899e-11  7.6271322681812240e-11  2.3721379653980638e-10  6.7417505352412991e-10  1.7542009472710537e-09  4.1884752406523158e-09  9.2024785775092146e-09  1.8667897470178069e-08  3.5110601659179387e-08  6.1538696367478152e-08  1.0112881763864613e-07  1.5692000288109602e-07  2.3170321449451412e-07  3.2820400628033086e-07  4.4947904398571548e-07  5.9930864571424830e-07  7.8237006118352011e-07  1.0041115058613675e-06  1.2704083348673443e-06  1.5871626861304742e-06  1.9599799835439195e-06  2.3939718381474015e-06  2.8936631476897929e-06  3.4629538394391193e-06  4.1050944144352142e-06  4.8226555222124653e-06  5.6174884354653731e-06  6.4906810984091756e-06  7.4425160272399383e-06  8.4724353772507170e-06  9.5790170555026647e-06  1.0759964514421129e-05  1.2012111846318509e-05  1.3331444881462691e-05  1.4713138322739901e-05  1.6151607657879674e-05  1.7640576477402941e-05  1.9173149369511444e-05  2.0741918503679646e-05  2.2338992658049365e-05  2.3956317475062019e-05  2.5585086770077973e-05  2.7217891800674622e-05  2.8843140155154855e-05  3.0459885846403790e-05  3.2042518351264163e-05  3.3618830834998303e-05  3.5115544552549705e-05  3.6624245277644875e-05  3.8038373207942561e-05  3.9318264725837672e-05  -1.8698259487196635e-19  -1.9087540634460254e-19  -1.6637375948306298e-19  1.3684990358327376e-19  3.1131063430602124e-18  2.9376527197098372e-17  2.3792105496394273e-16  1.7356336737258383e-15  1.1488283365726213e-14  6.9039735419654153e-14  3.7663930969322983e-13  1.8660313616325059e-12  8.4023033181463245e-12  3.4409549345575748e-11  1.2825598973700791e-10  4.3548881809714134e-10  1.3485488986585409e-09  3.8137768977204766e-09  9.8668866298857082e-09  2.3401040411796861e-08  5.1005595614384853e-08  1.0249118342440754e-07  1.9059783025693028e-07  3.2957611992810265e-07  5.3289330686743160e-07  8.1097271651877483e-07  1.1701161054122347e-06  1.6132518457420267e-06  2.1421271586835440e-06  2.7597276655638092e-06  3.4716702662993174e-06  4.2860534315962897e-06  5.2121603335394243e-06  6.2588714923222163e-06  7.4334948806672478e-06  8.7412582479234153e-06  1.0185318765911226e-05  1.1767008060874042e-05  1.3486092376166753e-05  1.5340950332353845e-05  1.7328661270688503e-05  1.9445034734659187e-05  2.1684614636170191e-05  2.4040682225038252e-05  2.6505272199134050e-05  2.9069209487583289e-05  3.1722169997907907e-05  3.4452765860994247e-05  3.7248653961644893e-05  4.0096664561867373e-05  4.2982948726080697e-05  4.5893130861349781e-05  4.8812499585980664e-05  5.1726091667276782e-05  5.4619165167243028e-05  5.7476374282476909e-05  6.0284999672872972e-05  6.3026153712453711e-05  6.5699318042299279e-05  6.8260450181818907e-05  7.0767700627899280e-05  7.3069684125702826e-05  7.5401067318150395e-05  7.7414016111442273e-05  7.9357642868579611e-05  -4.1880230081894861e-19  -4.1121776976111472e-19  -2.5977772480379153e-19  1.3794650390204121e-18  1.7268180745795296e-17  1.5634497379755341e-16  1.2577887474839450e-15  9.1611967913172885e-15  6.0532702861563350e-14  3.6291070681462495e-13  1.9748472425265098e-12  9.7593885882409358e-12  4.3823399741186775e-11  1.7890974519091184e-10  6.6451511979640518e-10  2.2474537976812048e-09  6.9286302620712989e-09  1.9495052676556952e-08  5.0140384824047207e-08  1.1810098758940328e-07  2.5534743173979976e-07  5.0824205619168138e-07  9.3456092855355303e-07  1.5944630870795118e-06  2.5371067566628200e-06  3.7881294944549133e-06  5.3443635069177479e-06  7.1791914438122150e-06  9.2562038311322901e-06  1.1544228879749700e-05  1.4026684182597473e-05  1.6702340147227425e-05  1.9579612886196472e-05  2.2669012900052516e-05  2.5977557043263186e-05  2.9506464421157803e-05  3.3251400310468642e-05  3.7203833003727875e-05  4.1352405961041055e-05  4.5683862425661297e-05  5.0183510458557094e-05  5.4835389157189511e-05  5.9622296636743651e-05  6.4525784425714891e-05  6.9526171959960294e-05  7.4602603364966173e-05  7.9733152351375402e-05  8.4894972994221804e-05  9.0064490306434867e-05  9.5217621835775492e-05  1.0033002375916083e-04  1.0537734125442633e-04  1.1033549967331510e-04  1.1518085191358311e-04  1.1989082847041450e-04  1.2444279212550034e-04  1.2881870383173126e-04  1.3299172180900553e-04  1.3696528232529209e-04  1.4066897010744261e-04  1.4421812613980424e-04  1.4731937037436283e-04  1.5050568880706092e-04  1.5287330069469854e-04  1.5552449957734340e-04  -9.3023851490046580e-19  -8.5455437181509080e-19  -9.4123293718859814e-20  7.8331773364387357e-18  8.4125921795021392e-17  7.5020197219423661e-16  6.0182095613424398e-15  4.3750076657407095e-14  2.8843969218740630e-13  1.7252162293043632e-12  9.3652524403964057e-12  4.6160090323531010e-11  2.0667198911388431e-10  8.4100119297088350e-10  3.1124024934743524e-09  1.0483903404983671e-08  3.2172974457883179e-08  9.0053113046439169e-08  2.3022592799468523e-07  5.3852697996211904e-07  1.1550073036956924e-06  2.2773483069699670e-06  4.1414145320795352e-06  6.9737192548485487e-06  1.0926083331848708e-05  1.6019211954765188e-05  2.2125802626769354e-05  2.9007378083186143e-05  3.6390136756145310e-05  4.4043621425411005e-05  5.1827490207558706e-05  5.9693650445455837e-05  6.7655987698782559e-05  7.5751438099196433e-05  8.4011198373789393e-05  9.2448251987271699e-05  1.0105739514291717e-04  1.0982075333662069e-04  1.1871354485482105e-04  1.2770791837040502e-04  1.3677480480692739e-04  1.4588449929945550e-04  1.5500666381794895e-04  1.6411017547912925e-04  1.7316301786858820e-04  1.8213228207630315e-04  1.9098428458921951e-04  1.9968478630877292e-04  2.0819928993232235e-04  2.1649339120853454e-04  2.2453316428406136e-04  2.3228554870503200e-04  2.3971877374294107e-04  2.4680259135724129e-04  2.5350913364333735e-04  2.5981136363783738e-04  2.6568958267403353e-04  2.7111169905405795e-04  2.7609325908613486e-04  2.8052894273504573e-04  2.8463576779331123e-04  2.8787398762631050e-04  2.9135575981219149e-04  2.9300450778416712e-04  2.9601872018029604e-04  -1.9872410040084920e-18  -1.6222249054348384e-18  1.7109162388348347e-18  3.6201326771460758e-17  3.6742795241922016e-16  3.2548883729821934e-15  2.6050769218817293e-14  1.8897524457349818e-13  1.2431192554931429e-12  7.4180215370720528e-12  4.0167433066166584e-11  1.9743539980295294e-10  8.8129544177115541e-10  3.5742220810328316e-09  1.3178517536036296e-08  4.4206786132295374e-08  1.3502812016805692e-07  3.7594896500978427e-07  9.5535014528488226e-07  2.2192916218088471e-06  4.7220947720516539e-06  9.2251678019373815e-06  1.6597072253356530e-05  2.7599870061932092e-05  4.2614883551613027e-05  6.1427710345062306e-05  8.3199668803173352e-05  1.0667248721678097e-04  1.3052585087534792e-04  1.5372202579383036e-04  1.7569059477038604e-04  1.9631014813083631e-04  2.1575213581642616e-04  2.3429599727787801e-04  2.5219676062664532e-04  2.6962851853081003e-04  2.8668411478869786e-04  3.0339909976853684e-04  3.1977688175113415e-04  3.3580574110760270e-04  3.5146748943297034e-04  3.6674078057533717e-04  3.8160190843113318e-04  3.9602479134565288e-04  4.0998090567781698e-04  4.2343941557905122e-04  4.36367527034