<?xml version="1.0"?>
<VTKFile type="UnstructuredGrid"  version="0.1"  >
<UnstructuredGrid>
<Piece  NumberOfPoints="4225" NumberOfCells="8192">
<Points>
<DataArray  type="Float64"  NumberOfComponents="3"  format="ascii">0 0 0  0.015625 0 0  0.03125 0 0  0.046875 0 0  0.0625 0 0  0.078125 0 0  0.09375 0 0  0.109375 0 0  0.125 0 0  0.140625 0 0  0.15625 0 0  0.171875 0 0  0.1875 0 0  0.203125 0 0  0.21875 0 0  0.234375 0 0  0.25 0 0  0.265625 0 0  0.28125 0 0  0.296875 0 0  0.3125 0 0  0.328125 0 0  0.34375 0 0  0.359375 0 0  0.375 0 0  0.390625 0 0  0.40625 0 0  0.421875 0 0  0.4375 0 0  0.453125 0 0  0.46875 0 0  0.484375 0 0  0.5 0 0  0.515625 0 0  0.53125 0 0  0.546875 0 0  0.5625 0 0  0.578125 0 0  0.59375 0 0  0.609375 0 0  0.625 0 0  0.640625 0 0  0.65625 0 0  0.671875 0 0  0.6875 0 0  0.703125 0 0  0.71875 0 0  0.734375 0 0  0.75 0 0  0.765625 0 0  0.78125 0 0  0.796875 0 0  0.8125 0 0  0.828125 0 0  0.84375 0 0  0.859375 0 0  0.875 0 0  0.890625 0 0  0.90625 0 0  0.921875 0 0  0.9375 0 0  0.953125 0 0  0.96875 0 0  0.984375 0 0  1 0 0  0 0.015625 0  0.015625 0.015625 0  0.03125 0.015625 0  0.046875 0.015625 0  0.0625 0.015625 0  0.078125 0.015625 0  0.09375 0.015625 0  0.109375 0.015625 0  0.125 0.015625 0  0.140625 0.015625 0  0.15625 0.015625 0  0.171875 0.015625 0  0.1875 0.015625 0  0.203125 0.015625 0  0.21875 0.015625 0  0.234375 0.015625 0  0.25 0.015625 0  0.265625 0.015625 0  0.28125 0.015625 0  0.296875 0.015625 0  0.3125 0.015625 0  0.328125 0.015625 0  0.34375 0.015625 0  0.359375 0.015625 0  0.375 0.015625 0  0.390625 0.015625 0  0.40625 0.015625 0  0.421875 0.015625 0  0.4375 0.015625 0  0.453125 0.015625 0  0.46875 0.015625 0  0.484375 0.015625 0  0.5 0.015625 0  0.515625 0.015625 0  0.53125 0.015625 0  0.546875 0.015625 0  0.5625 0.015625 0  0.578125 0.015625 0  0.59375 0.015625 0  0.609375 0.015625 0  0.625 0.015625 0  0.640625 0.015625 0  0.65625 0.015625 0  0.671875 0.015625 0  0.6875 0.015625 0  0.703125 0.015625 0  0.71875 0.015625 0  0.734375 0.015625 0  0.75 0.015625 0  0.765625 0.015625 0  0.78125 0.015625 0  0.796875 0.015625 0  0.8125 0.015625 0  0.828125 0.015625 0  0.84375 0.015625 0  0.859375 0.015625 0  0.875 0.015625 0  0.890625 0.015625 0  0.90625 0.015625 0  0.921875 0.015625 0  0.9375 0.015625 0  0.953125 0.015625 0  0.96875 0.015625 0  0.984375 0.015625 0  1 0.015625 0  0 0.03125 0  0.015625 0.03125 0  0.03125 0.03125 0  0.046875 0.03125 0  0.0625 0.03125 0  0.078125 0.03125 0  0.09375 0.03125 0  0.109375 0.03125 0  0.125 0.03125 0  0.140625 0.03125 0  0.15625 0.03125 0  0.171875 0.03125 0  0.1875 0.03125 0  0.203125 0.03125 0  0.21875 0.03125 0  0.234375 0.03125 0  0.25 0.03125 0  0.265625 0.03125 0  0.28125 0.03125 0  0.296875 0.03125 0  0.3125 0.03125 0  0.328125 0.03125 0  0.34375 0.03125 0  0.359375 0.03125 0  0.375 0.03125 0  0.390625 0.03125 0  0.40625 0.03125 0  0.421875 0.03125 0  0.4375 0.03125 0  0.453125 0.03125 0  0.46875 0.03125 0  0.484375 0.03125 0  0.5 0.03125 0  0.515625 0.03125 0  0.53125 0.03125 0  0.546875 0.03125 0  0.5625 0.03125 0  0.578125 0.03125 0  0.59375 0.03125 0  0.609375 0.03125 0  0.625 0.03125 0  0.640625 0.03125 0  0.65625 0.03125 0  0.671875 0.03125 0  0.6875 0.03125 0  0.703125 0.03125 0  0.71875 0.03125 0  0.734375 0.03125 0  0.75 0.03125 0  0.765625 0.03125 0  0.78125 0.03125 0  0.796875 0.03125 0  0.8125 0.03125 0  0.828125 0.03125 0  0.84375 0.03125 0  0.859375 0.03125 0  0.875 0.03125 0  0.890625 0.03125 0  0.90625 0.03125 0  0.921875 0.03125 0  0.9375 0.03125 0  0.953125 0.03125 0  0.96875 0.03125 0  0.984375 0.03125 0  1 0.03125 0  0 0.046875 0  0.015625 0.046875 0  0.03125 0.046875 0  0.046875 0.046875 0  0.0625 0.046875 0  0.078125 0.046875 0  0.09375 0.046875 0  0.109375 0.046875 0  0.125 0.046875 0  0.140625 0.046875 0  0.15625 0.046875 0  0.171875 0.046875 0  0.1875 0.046875 0  0.203125 0.046875 0  0.21875 0.046875 0  0.234375 0.046875 0  0.25 0.046875 0  0.265625 0.046875 0  0.28125 0.046875 0  0.296875 0.046875 0  0.3125 0.046875 0  0.328125 0.046875 0  0.34375 0.046875 0  0.359375 0.046875 0  0.375 0.046875 0  0.390625 0.046875 0  0.40625 0.046875 0  0.421875 0.046875 0  0.4375 0.046875 0  0.453125 0.046875 0  0.46875 0.046875 0  0.484375 0.046875 0  0.5 0.046875 0  0.515625 0.046875 0  0.53125 0.046875 0  0.546875 0.046875 0  0.5625 0.046875 0  0.578125 0.046875 0  0.59375 0.046875 0  0.609375 0.046875 0  0.625 0.046875 0  0.640625 0.046875 0  0.65625 0.046875 0  0.671875 0.046875 0  0.6875 0.046875 0  0.703125 0.046875 0  0.71875 0.046875 0  0.734375 0.046875 0  0.75 0.046875 0  0.765625 0.046875 0  0.78125 0.046875 0  0.796875 0.046875 0  0.8125 0.046875 0  0.828125 0.046875 0  0.84375 0.046875 0  0.859375 0.046875 0  0.875 0.046875 0  0.890625 0.046875 0  0.90625 0.046875 0  0.921875 0.046875 0  0.9375 0.046875 0  0.953125 0.046875 0  0.96875 0.046875 0  0.984375 0.046875 0  1 0.046875 0  0 0.0625 0  0.015625 0.0625 0  0.03125 0.0625 0  0.046875 0.0625 0  0.0625 0.0625 0  0.078125 0.0625 0  0.09375 0.0625 0  0.109375 0.0625 0  0.125 0.0625 0  0.140625 0.0625 0  0.15625 0.0625 0  0.171875 0.0625 0  0.1875 0.0625 0  0.203125 0.0625 0  0.21875 0.0625 0  0.234375 0.0625 0  0.25 0.0625 0  0.265625 0.0625 0  0.28125 0.0625 0  0.296875 0.0625 0  0.3125 0.0625 0  0.328125 0.0625 0  0.34375 0.0625 0  0.359375 0.0625 0  0.375 0.0625 0  0.390625 0.0625 0  0.40625 0.0625 0  0.421875 0.0625 0  0.4375 0.0625 0  0.453125 0.0625 0  0.46875 0.0625 0  0.484375 0.0625 0  0.5 0.0625 0  0.515625 0.0625 0  0.53125 0.0625 0  0.546875 0.0625 0  0.5625 0.0625 0  0.578125 0.0625 0  0.59375 0.0625 0  0.609375 0.0625 0  0.625 0.0625 0  0.640625 0.0625 0  0.65625 0.0625 0  0.671875 0.0625 0  0.6875 0.0625 0  0.703125 0.0625 0  0.71875 0.0625 0  0.734375 0.0625 0  0.75 0.0625 0  0.765625 0.0625 0  0.78125 0.0625 0  0.796875 0.0625 0  0.8125 0.0625 0  0.828125 0.0625 0  0.84375 0.0625 0  0.859375 0.0625 0  0.875 0.0625 0  0.890625 0.0625 0  0.90625 0.0625 0  0.921875 0.0625 0  0.9375 0.0625 0  0.953125 0.0625 0  0.96875 0.0625 0  0.984375 0.0625 0  1 0.0625 0  0 0.078125 0  0.015625 0.078125 0  0.03125 0.078125 0  0.046875 0.078125 0  0.0625 0.078125 0  0.078125 0.078125 0  0.09375 0.078125 0  0.109375 0.078125 0  0.125 0.078125 0  0.140625 0.078125 0  0.15625 0.078125 0  0.171875 0.078125 0  0.1875 0.078125 0  0.203125 0.078125 0  0.21875 0.078125 0  0.234375 0.078125 0  0.25 0.078125 0  0.265625 0.078125 0  0.28125 0.078125 0  0.296875 0.078125 0  0.3125 0.078125 0  0.328125 0.078125 0  0.34375 0.078125 0  0.359375 0.078125 0  0.375 0.078125 0  0.390625 0.078125 0  0.40625 0.078125 0  0.421875 0.078125 0  0.4375 0.078125 0  0.453125 0.078125 0  0.46875 0.078125 0  0.484375 0.078125 0  0.5 0.078125 0  0.515625 0.078125 0  0.53125 0.078125 0  0.546875 0.078125 0  0.5625 0.078125 0  0.578125 0.078125 0  0.59375 0.078125 0  0.609375 0.078125 0  0.625 0.078125 0  0.640625 0.078125 0  0.65625 0.078125 0  0.671875 0.078125 0  0.6875 0.078125 0  0.703125 0.078125 0  0.71875 0.078125 0  0.734375 0.078125 0  0.75 0.078125 0  0.765625 0.078125 0  0.78125 0.078125 0  0.796875 0.078125 0  0.8125 0.078125 0  0.828125 0.078125 0  0.84375 0.078125 0  0.859375 0.078125 0  0.875 0.078125 0  0.890625 0.078125 0  0.90625 0.078125 0  0.921875 0.078125 0  0.9375 0.078125 0  0.953125 0.078125 0  0.96875 0.078125 0  0.984375 0.078125 0  1 0.078125 0  0 0.09375 0  0.015625 0.09375 0  0.03125 0.09375 0  0.046875 0.09375 0  0.0625 0.09375 0  0.078125 0.09375 0  0.09375 0.09375 0  0.109375 0.09375 0  0.125 0.09375 0  0.140625 0.09375 0  0.15625 0.09375 0  0.171875 0.09375 0  0.1875 0.09375 0  0.203125 0.09375 0  0.21875 0.09375 0  0.234375 0.09375 0  0.25 0.09375 0  0.265625 0.09375 0  0.28125 0.09375 0  0.296875 0.09375 0  0.3125 0.09375 0  0.328125 0.09375 0  0.34375 0.09375 0  0.359375 0.09375 0  0.375 0.09375 0  0.390625 0.09375 0  0.40625 0.09375 0  0.421875 0.09375 0  0.4375 0.09375 0  0.453125 0.09375 0  0.46875 0.09375 0  0.484375 0.09375 0  0.5 0.09375 0  0.515625 0.09375 0  0.53125 0.09375 0  0.546875 0.09375 0  0.5625 0.09375 0  0.578125 0.09375 0  0.59375 0.09375 0  0.609375 0.09375 0  0.625 0.09375 0  0.640625 0.09375 0  0.65625 0.09375 0  0.671875 0.09375 0  0.6875 0.09375 0  0.703125 0.09375 0  0.71875 0.09375 0  0.734375 0.09375 0  0.75 0.09375 0  0.765625 0.09375 0  0.78125 0.09375 0  0.796875 0.09375 0  0.8125 0.09375 0  0.828125 0.09375 0  0.84375 0.09375 0  0.859375 0.09375 0  0.875 0.09375 0  0.890625 0.09375 0  0.90625 0.09375 0  0.921875 0.09375 0  0.9375 0.09375 0  0.953125 0.09375 0  0.96875 0.09375 0  0.984375 0.09375 0  1 0.09375 0  0 0.109375 0  0.015625 0.109375 0  0.03125 0.109375 0  0.046875 0.109375 0  0.0625 0.109375 0  0.078125 0.109375 0  0.09375 0.109375 0  0.109375 0.109375 0  0.125 0.109375 0  0.140625 0.109375 0  0.15625 0.109375 0  0.171875 0.109375 0  0.1875 0.109375 0  0.203125 0.109375 0  0.21875 0.109375 0  0.234375 0.109375 0  0.25 0.109375 0  0.265625 0.109375 0  0.28125 0.109375 0  0.296875 0.109375 0  0.3125 0.109375 0  0.328125 0.109375 0  0.34375 0.109375 0  0.359375 0.109375 0  0.375 0.109375 0  0.390625 0.109375 0  0.40625 0.109375 0  0.421875 0.109375 0  0.4375 0.109375 0  0.453125 0.109375 0  0.46875 0.109375 0  0.484375 0.109375 0  0.5 0.109375 0  0.515625 0.109375 0  0.53125 0.109375 0  0.546875 0.109375 0  0.5625 0.109375 0  0.578125 0.109375 0  0.59375 0.109375 0  0.609375 0.109375 0  0.625 0.109375 0  0.640625 0.109375 0  0.65625 0.109375 0  0.671875 0.109375 0  0.6875 0.109375 0  0.703125 0.109375 0  0.71875 0.109375 0  0.734375 0.109375 0  0.75 0.109375 0  0.765625 0.109375 0  0.78125 0.109375 0  0.796875 0.109375 0  0.8125 0.109375 0  0.828125 0.109375 0  0.84375 0.109375 0  0.859375 0.109375 0  0.875 0.109375 0  0.890625 0.109375 0  0.90625 0.109375 0  0.921875 0.109375 0  0.9375 0.109375 0  0.953125 0.109375 0  0.96875 0.109375 0  0.984375 0.109375 0  1 0.109375 0  0 0.125 0  0.015625 0.125 0  0.03125 0.125 0  0.046875 0.125 0  0.0625 0.125 0  0.078125 0.125 0  0.09375 0.125 0  0.109375 0.125 0  0.125 0.12
[...]
<PointData  Scalars="f_9634"> 
<DataArray  type="Float64"  Name="f_9634"  format="ascii">1.0991406542988333e-01  1.0212936345521327e-01  8.8406118432745137e-02  7.5636945078743786e-02  6.3797955780557386e-02  5.3002073434096485e-02  4.3334712823045574e-02  3.4838240565864549e-02  2.7514119526098751e-02  2.1326389221839492e-02  1.6207094922706364e-02  1.2063214564587190e-02  8.7844471598419009e-03  6.2511792742355257e-03  4.3419726620720763e-03  2.9400177384525561e-03  1.9381584206386068e-03  1.2422885394356763e-03  7.7311839200938778e-04  4.6648297594421948e-04  2.7248842318455070e-04  1.5385804123434012e-04  8.3844026252236854e-05  4.4025846732981283e-05  2.2239070640797653e-05  1.0788880155793262e-05  5.0182761715364157e-06  2.2341458447354764e-06  9.5039244558671236e-07  3.8564072947721206e-07  1.4900691109150187e-07  5.4730912938815625e-08  1.9077773572454602e-08  6.3003785253417171e-09  1.9680503381000066e-09  5.8054522718847129e-10  1.6146556486561094e-10  4.2276175180407656e-11  1.0404585438667036e-11  2.4033682976239571e-12  5.2028860808585962e-13  1.0540558672614091e-13  1.9954728829935943e-14  3.5250085614978101e-15  5.8025764236696563e-16  8.8968489311450384e-17  1.2789467023347169e-17  1.8285960529319940e-18  3.6770478630874201e-19  1.8767599644068821e-19  1.6720552271912264e-19  1.6506265415184755e-19  1.6485665629304736e-19  1.6483852042293925e-19  1.6483706253521622e-19  1.6483695586873688e-19  1.6483694878944863e-19  1.6483694836492140e-19  1.6483694834234000e-19  1.6483694834176280e-19  1.6483694834244041e-19  1.6483694834334964e-19  1.6483694834418114e-19  1.6483694834332097e-19  1.6483694833232855e-19  1.2525766442748221e-01  1.1628790015306793e-01  1.0106000239592400e-01  8.7246789120544108e-02  7.4285857990170623e-02  6.2317360652007547e-02  5.1465025587025613e-02  4.1805793736537172e-02  3.3372119357879801e-02  2.6153916328760969e-02  2.0102856044420914e-02  1.5138699148019347e-02  1.1157050459732124e-02  8.0378268505666289e-03  5.6536944924497042e-03  3.8777862167534930e-03  2.5901434971963826e-03  1.6825192751518201e-03  1.0613968356002286e-03  6.4929217428532184e-04  3.8458191351054433e-04  2.2021404409510671e-04  1.2170559117443863e-04  6.4814111130958948e-05  3.3203999912504189e-05  1.6335317148047193e-05  7.7041424855894955e-06  3.4770845076134674e-06  1.4990956191602972e-06  6.1630103208095048e-07  2.4117526396308733e-07  8.9676655476523672e-08  3.1627865414857994e-08  1.0562107144224202e-08  3.3341060991321347e-09  9.9317933675958616e-10  2.7872818115259686e-10  7.3576469181210783e-11  1.8239595339160729e-11  4.2396916285210375e-12  9.2263217847359061e-13  1.8768675218718608e-13  3.5635425524600659e-14  6.3052100713436973e-15  1.0380650830799368e-15  1.5885346409018438e-16  2.2659245184709012e-17  3.1153259838995002e-18  5.2217118975655059e-19  2.0470140688718681e-19  1.6892272970803562e-19  1.6522052000621398e-19  1.6486982140952373e-19  1.6483951050557475e-19  1.6483712912357351e-19  1.6483695976466960e-19  1.6483694891214676e-19  1.6483694828883855e-19  1.6483694825719415e-19  1.6483694825616725e-19  1.6483694825670107e-19  1.6483694825752965e-19  1.6483694825872332e-19  1.6483694826060680e-19  1.6483694826454940e-19  1.5561691680521988e-01  1.4624350089720048e-01  1.2931507846747312e-01  1.1355644586638906e-01  9.8312933282081752e-02  8.3894575731999307e-02  7.0511075023144298e-02  5.8317457172481380e-02  4.7419439295585453e-02  3.7871241230371784e-02  2.9676690641428593e-02  2.2793435486306891e-02  1.7139788179957538e-02  1.2603529047002857e-02  9.0518195675918962e-03  6.3413018343462194e-03  4.3275013974294549e-03  2.8727993354776501e-03  1.8524711089514426e-03  1.1585656667479746e-03  7.0167305151454609e-04  4.1085979540810664e-04  2.3220748433730849e-04  1.2645687591422477e-04  6.6242281841169306e-05  3.3318316971266212e-05  1.6062097705599955e-05  7.4079946405461373e-06  3.2627260181143866e-06  1.3697542158878786e-06  5.4712831836322079e-07  2.0755263434537840e-07  7.4640924154658861e-08  2.5401842514813619e-08  8.1665414380701711e-09  2.4760483139879495e-09  7.0682355621216180e-10  1.8966947708175233e-10  4.7768604220664034e-11  1.1274308902656301e-11  2.4900061869303064e-12  5.1386472745501339e-13  9.8950853913118124e-14  1.7754272471007933e-14  2.9641384357783245e-15  4.5991473593916962e-16  6.6325692572479119e-17  8.9844781097467253e-18  1.2522204750368475e-18  2.8862561647621242e-19  1.7782687851650958e-19  1.6609127982796824e-19  1.6494821478165658e-19  1.6484600101451495e-19  1.6483762279739316e-19  1.6483699410051694e-19  1.6483695094788464e-19  1.6483694823945410e-19  1.6483694808409458e-19  1.6483694807614217e-19  1.6483694807606039e-19  1.6483694807648951e-19  1.6483694807714960e-19  1.6483694807816613e-19  1.6483694807975180e-19  1.9135999181557378e-01  1.8142883870709692e-01  1.6291796177531856e-01  1.4529791406073070e-01  1.2781018733380919e-01  1.1087398804301672e-01  9.4771176051728814e-02  7.9746745937201088e-02  6.5998586268284518e-02  5.3667954256514924e-02  4.2835673534690678e-02  3.3522353182895537e-02  2.5692470719194435e-02  1.9261896492766092e-02  1.4108078794900612e-02  1.0081849731635190e-02  7.0196839228711394e-03  4.7552660634432725e-03  3.1293954387262924e-03  1.9975454985502392e-03  1.2347533447903674e-03  7.3787553447347766e-04  4.2555348915997724e-04  2.3643977383888416e-04  1.2632519065228351e-04  6.4781826748627866e-05  3.1826356379528152e-05  1.4950546738708583e-05  6.7022767481500461e-06  2.8617919181121628e-06  1.1616089298192394e-06  4.4735077046045932e-07  1.6314398727032165e-07  5.6235213473830812e-08  1.8287488914932985e-08  5.6003951377494162e-09  1.6122410124368312e-09  4.3554502590213029e-10  1.1022717911464189e-10  2.6089750049919667e-11  5.7657625398367668e-12  1.1877595325726815e-12  2.2769502537082393e-13  4.0548608760158327e-14  6.6957951488318656e-15  1.0233126291804404e-15  1.4452579296214698e-16  1.8924213346800471e-17  2.4032107276591177e-18  4.0916971014011840e-19  1.8912001081003931e-19  1.6702027077980466e-19  1.6501290967951156e-19  1.6484947579652755e-19  1.6483771545862993e-19  1.6483698608379596e-19  1.6483694916353592e-19  1.6483694787747316e-19  1.6483694787735974e-19  1.6483694788221347e-19  1.6483694788284518e-19  1.6483694788304511e-19  1.6483694788326270e-19  1.6483694788354275e-19  1.6483694788388027e-19  2.3065142844263259e-01  2.2046496385966000e-01  2.0108560896523317e-01  1.8216882642244470e-01  1.6284669976523428e-01  1.4362863615265417e-01  1.2487283146772502e-01  1.0692324247804812e-01  9.0083900374842193e-02  7.4604195180745222e-02  6.0669000279251158e-02  4.8392714032090826e-02  3.7818058893581252e-02  2.8919766350586476e-02  2.1612728582990098e-02  1.5763722979669624e-02  1.1205443920665494e-02  7.7513688772087403e-03  5.2099795261847685e-03  3.3970547710616642e-03  2.1451153310718136e-03  1.3095614645755739e-03  7.7152167935550073e-04  4.3783789437385254e-04  2.3888883985950039e-04  1.2506942841910353e-04  6.2707450956681320e-05  3.0048846536587805e-05  1.3734009839949447e-05  5.9750927265707679e-06  2.4693794676603801e-06  9.6750017192051108e-07  3.5864856459294258e-07  1.2554279632483147e-07  4.1417889086436981e-08  1.2854307952029657e-08  3.7461915180146859e-09  1.0234207379253075e-09  2.6164407898426053e-10  6.2496578942840114e-11  1.3925530021350530e-11  2.8901622845307019e-12  5.5789655530844007e-13  1.0002109701535185e-13  1.6631936240800813e-14  2.5618352625526315e-15  3.6517476396328083e-16  4.8226217146508113e-17  6.0074196305990558e-18  8.2022566487117418e-19  2.3268203707622146e-19  1.7132539739210356e-19  1.6541173813767780e-19  1.6488433816300116e-19  1.6484061082117417e-19  1.6483721567498193e-19  1.6483696642546054e-19  1.6483694894541515e-19  1.6483694776539470e-19  1.6483694768864076e-19  1.6483694768390129e-19  1.6483694768367294e-19  1.6483694768371531e-19  1.6483694768377167e-19  1.6483694768381902e-19  2.7223688690497488e-01  2.6233883168048550e-01  2.4309089030105160e-01  2.2370748107284666e-01  2.0324046037210564e-01  1.8226436764891837e-01  1.6119788502462853e-01  1.4047443466533813e-01  1.2050540153206594e-01  1.0166085055519732e-01  8.4252194209931006e-02  6.8518119568446320e-02  5.4615499113352742e-02  4.2616140171361269e-02  3.2509664753667990e-02  2.4212162241859413e-02  1.7579612145353508e-02  1.2424543964360952e-02  8.5340773799863837e-03  5.6874278241765448e-03  3.6711816954274933e-03  2.2911000275854620e-03  1.3798102296697569e-03  8.0037595383262625e-04  4.4627850932065638e-04  2.3871062670567561e-04  1.2223347111634417e-04  5.9792431664635595e-05  2.7881484537252565e-05  1.2367187046771943e-05  5.2069585859262622e-06  2.0765130287213737e-06  7.8273246486595943e-07  2.7830918616107228e-07  9.3154861180521132e-08  2.9295442407280437e-08  8.6395460396193151e-09  2.3849874048135621e-09  6.1520723604382901e-10  1.4803303958471938e-10  3.3172730127836369e-11  6.9117497012850709e-12  1.3368551290685582e-12  2.3964579201222822e-13  3.9748631440391996e-14  6.0894713109124372e-15  8.6009601744960721e-16  1.1185892791417347e-16  1.3471780079003870e-17  1.6138298875244810e-18  3.0833181080622589e-19  1.7766272052281324e-19  1.6585828757013733e-19  1.6490759105742772e-19  1.6484094147537987e-19  1.6483709604787993e-19  1.6483694527064556e-19  1.6483694634890857e-19  1.6483694733769886e-19  1.6483694746585609e-19  1.6483694747785235e-19  1.6483694747881777e-19  1.6483694747891183e-19  1.6483694747894228e-19  1.6483694747896327e-19  3.1442658993571360e-01  3.0548988394648652e-01  2.8760148951900655e-01  2.6885320099020771e-01  2.4824827097442298e-01  2.2637924453656375e-01  2.0368951198303192e-01  1.8067469325672522e-01  1.5783803858476944e-01  1.3566764300951933e-01  1.1461198950097579e-01  9.5057139817190897e-02  7.7307854349513372e-02  6.1574399138602486e-02  4.7966382024443213e-02  3.6494249531103792e-02  2.7078220288620908e-02  1.9563557793082973e-02  1.3740335363366184e-02  9.3653527054284869e-03  6.1837211008337247e-03  3.9478724836432911e-03  2.4323188053440008e-03  1.4432740163537237e-03  8.2309004665194832e-04  4.5018529091770971e-04  2.3563263229947691e-04  1.1776567408682299e-04  5.6075020563084744e-05  2.5381121370111979e-05  1.0895996490128547e-05  4.4265882136618999e-06  1.6980941643427814e-06  6.1377387716183407e-07  2.0859160607253359e-07  6.6518672701200386e-08  1.9865393588013739e-08  5.5454927090963101e-09  1.4444064922024574e-09  3.5042520903311046e-10  7.9056712531692684e-11  1.6558726329633927e-11  3.2150528705057191e-12  5.7778404519885713e-13  9.5964824638641586e-14  1.4709200409416055e-14  2.0777120882143041e-15  2.7018861567533826e-16  3.2419499893158857e-17  3.7026384813405895e-18  5.2110979428085795e-19  1.9783008061322445e-19  1.6766036579541088e-19  1.6506267702422494e-19  1.6485415743050331e-19  1.6483823858225930e-19  1.6483704596855734e-19  1.6483695509298806e-19  1.6483694790403794e-19  1.6483694731995229e-19  1.6483694727285047e-19  1.6483694726923858e-19  1.6483694726900865e-19  1.6483694726902355e-19  1.6483694726905366e-19  3.5509182851149079e-01  3.4785939346537026e-01  3.3272614296218261e-01  3.1594542226590111e-01  2.9650552084145992e-01  2.7495468548327223e-01  2.5170970407472665e-01  2.2728212134926154e-01  2.0223006669375196e-01  1.7713513476988563e-01  1.5257336853884154e-01  1.2908499948079472e-01  1.0714546445152234e-01  8.7140328277016066e-02  6.9346638074599676e-02  5.3922692962860723e-02  4.0907346975005997e-02  3.0228864067455941e-02  2.1722168744676536e-02  1.5152280562596359e-02  1.0240981183838418e-02  6.6934871424651566e-03  4.2221498219462677e-03  2.5649245442033917e-03  1.4973856822932837e-03  8.3818839310329505e-04  4.4885474196393229e-04  2.2941145080946067e-04  1.1164664005655804e-04  5.1613985882247369e-05  2.2612613454777204e-05  9.3664258230810382e-06  3.6595682786323554e-06  1.3456539989003091e-06  4.6465144915536107e-07  1.5034447544529360e-07  4.5491164017863302e-08  1.2846909710467883e-08  3.3798321998513724e-09  8.2689066982920273e-10  1.8781259577011210e-10  3.9538704343602071e-11  7.7030299959998185e-12  1.3866794723396026e-12  2.3030423278080461e-13  3.5234140996575496e-14  4.9575016244927430e-15  6.4048410609619496e-16  7.5942336886430588e-17  8.3614328494748993e-18  9.7260026439047652e-19  2.3701029995206518e-19  1.7063324627984733e-19  1.6524781873530718e-19  1.6486149323665204e-19  1.6483799865920741e-19  1.6483694729335471e-19  1.6483694020240583e-19  1.6483694599778821e-19  1.6483694693656394e-19  1.6483694704305173e-19  1.6483694705327842e-19  1.6483694705418161e-19  1.6483694705428676e-19  1.6483694705433019e-19  3.9180314696853613e-01  3.8701922730328497e-01  3.7609024172120509e-01  3.6274139397016247e-01  3.4598948766116200e-01  3.2626889071960113e-01  3.0390734090353033e-01  2.7936848320390761e-01  2.5320581819594035e-01  2.2604415217561338e-01  1.9855068436183509e-01  1.7140100697221511e-01  1.4524225402765856e-01  1.2065647578250858e-01  9.8127716964924311e-02  7.8016208504123746e-02  6.0542536100957840e-02  4.5783619772712843e-02  3.3680933468776167e-02  2.4059816285691874e-02  1.6657247391821846e-02  1.1154360635205684e-02  7.2094925811725498e-03  4.4877993063083830e-03  2.6843907266369863e-03  1.5393052540829909e-03  8.4416322622050033e-04  4.4165685769627643e-04  2.1989700907710751e-04  1.0392986738352022e-04  4.6511354857964759e-05  1.9660491722485278e-05  7.8303750004067930e-06  2.9314642513995669e-06  1.0291863956807565e-06  3.3809845269766725e-07  1.0370695910422995e-07  2.9642204558425496e-08  7.8798984230190856e-09  1.9447059780561258e-09  4.4480416346568336e-10  9.4137120770821633e-11  1.8405846799704349e-11  3.3197128989761558e-12  5.5151054036409959e-13  8.4270716280555706e-14  1.1825699002608037e-14  1.5218732777493814e-15  1.7945091278008893e-16  1.9477067015903635e-17  2.0644942423015058e-18  3.3541351808428017e-19  1.7884448230030262e-19  1.6589667043199707e-19  1.6491231811398684e-19  1.6484222232005811e-19  1.6483733915685851e-19  1.6483698002440520e-19  1.6483694999930783e-19  1.6483694715056653e-19  1.6483694686575760e-19  1.6483694683790220e-19  1.6483694683537921e-19  1.6483694683520554e-19  1.6483694683523453e-19  4.2203640328625991e-01  4.2036273266671337e-01  4.1498669577947561e-01  4.0652237903897037e-01  3.9407285848340479e-01  3.7789095633198871e-01  3.5815014707838444e-01  3.3519168134544147e-01  3.0948673329151610e-01  2.8162804527570262e-01  2.5230739926796569e-01  2.2228406092594596e-01  1.9234539533917949e-01  1.6326237861533799e-01  1.3574374895209779e-01  1.1039321261960233e-01  8.7674277407735979e-02  6.7886780816504302e-02  5.1157983163332650e-02  3.7449314380756757e-02  2.6577752183360722e-02  1.8248739729629496e-02  1.2095938030349579e-02  7.7223085526783057e-03  4.7372269405689619e-03  2.7854955342927804e-03  1.5659641653553993e-03  8.3952984021819145e-04  4.2807571146947539e-04  2.0705228068877737e-04  9.4745446549941381e-05  4.0908033445674644e-05  1.6622762242578105e-05  6.3407968314707728e-06  2.2650123646795206e-06  7.5590863662753127e-07  2.3516753893681296e-07  6.8059208857343364e-08  1.8287134161967099e-08  4.5536065009645903e-09  1.0489829991662677e-09  2.2319300381645016e-10  4.3794949932046912e-11  7.9132976394286775e-12  1.3147870559235745e-12  2.0058409372484352e-13  2.8057735980205025e-14  3.5932395609651162e-15  4.2075331133350529e-16  4.5088695538681950e-17  4.5347445742934087e-18  5.5098883583211142e-19  1.9571538498424675e-19  1.6705402881901355e-19  1.6497704070786561e-19  1.6484424689654161e-19  1.6483717284089057e-19  1.6483693317706227e-19  1.6483694272557059e-19  1.6483694604878987e-19  1.6483694654527877e-19  1.6483694660509545e-19  1.6483694661150338e-19  1.6483694661216441e-19  1.6483694661226129e-19  4.4343327863310694e-01  4.4536030360134898e-01  4.4661312595066482e-01  4.4430074716667212e-01  4.3768479998513293e-01  4.2678226614182618e-01  4.1155644940748204e-01  3.9215281237608662e-01  3.6887444216713439e-01  3.4218888165805128e-01  3.1271872506847082e-01  2.8122034078127994e-01  2.4855011106142005e-01  2.1561955359314441e-01  1.8334223394233681e-01  1.5257687241135701e-01  1.2407219960428761e-01  9.8419624884347565e-02  7.6019418016604307e-02  5.7064760240313796e-02  4.1545784386431840e-02  2.9272905612687340e-02  1.9915851050861522e-02  1.3052432524678720e-02  8.2198215977747433e-03  4.9612077846385343e-03  2.8622276526866484e-03  1.5740508777601714e-03  8.2283742341500985e-04  4.0771765893406935e-04  1.9095141326531134e-04  8.4291206183812519e-05  3.4973499711619034e-05  1.3602858941883585e-05  4.9469640770114411e-06  1.6780432602731424e-06  5.2969175759238895e-07  1.5526144774644544e-07  4.2174933737760503e-08  1.0597136609139508e-08  2.4587654125166157e-09  5.2594731839724604e-10  1.0356389267161583e-10  1.8745279212139356e-11  3.1145148295815731e-12  4.7436338813899929e-13  6.6139514922263288e-14  8.4302675095649772e-15  9.8103050617341008e-16  1.0419411623374102e-16  1.0207351717587206e-17  1.0461165886659634e-18  2.3509327943589134e-19  1.6993213831555400e-19  1.6517574157385099e-19  1.6485817240037119e-19  1.6483829958790357e-19  1.6483704792496809e-19  1.6483695628352713e-19  1.6483694753354321e-19  1.6483694652305842e-19  1.6483694640151816e-19  1.6483694638756357e-19  1.6483694638611809e-19  1.6483694638604038e-19  4.5408583978139105e-01  4.5985354821771296e-01  4.6837457827984558e-01  4.7311586610908563e-01  4.7358061636776766e-01  4.6952072639822545e-01  4.6065596605871750e-01  4.4687859047368811e-01  4.2824504329600405e-01  4.0500072500467649e-01  3.7758912206417217e-01  3.4664854959426517e-01  3.1299361234044443e-01  2.7758048987050682e-01  2.4145685714436516e-01  2.0569934043005667e-01  1.7134355696345160e-01  1.3931361522255561e-01  1.1035903478406073e-01  8.5006990012864159e-02  6.3536353198910989e-02  4.5977238462413667e-02  3.2135991881620460e-02  2.1641522328880242e-02  1.4005405501006261e-02  8.6861736827395803e-03  5.1481730913575281e-03  2.9073511951446169e-03  1.5597694236150583e-03  7.9254510233149947e-04  3.8024908783260153e-04  1.7174597182408071e-04  7.2811904953196598e-05  2.8892405393751744e-05  1.0701783377353268e-05  3.6907361722563355e-06  1.1822829640690227e-06  3.5101473477784982e-07  9.6392809080071709e-08  2.4438321851356389e-08  5.7103599099181802e-09  1.2278243991441154e-09  2.4257862393717071e-10  4.3975590346864625e-11  7.3053034134695764e-12  1.1106331139125572e-12  1.5433001485554774e-13  1.9575598500799385e-14  2.2636429265112726e-15  2.3842279897077103e-16  2.2963239217929961e-17  2.1449470742233404e-18  3.2066369052510349e-19  1.7591932283784064e-19  1.6554507643635943e-19  1.6487683719955363e-19  1.6483877892258836e-19  1.6483698534243846e-19  1.6483693987770993e-19  1.6483694469224457e-19  1.6483694593291923e-19  1.6483694612735832e-19  1.6483694615342535e-19  1.6483694615662362e-19  1.6483694615698035e-19  4.5280159364911166e-01  4.6234533914745285e-01  4.7821236229790753e-01  4.9038693292584928e-01  4.9869957666754045e-01  5.0264164880611728e-01  5.0168968103040668e-01  4.9545621872594769e-01  4.8369761916373855e-01  4.6635583769052114e-01  4.4358819779940190e-01  4.1578744190253591e-01  3.8358700186304645e-01  3.4784794112702244e-01  3.0962530607046684e-01  2.7011373277435102e-01  2.3057486746125383e-01  1.9225216136035317e-01  1.5628140050164782e-01  1.2360730887246936e-01  9.4917093633963417e-02  7.0600421405098382e-02  5.0741918172619561e-02  3.5147272533472537e-02  2.3398330279316645e-02  1.4927509988419928e-02  9.0987693078258096e-03  5.2820892630285826e-03  2.9110910802496977e-03  1.5181425166570746e-03  7.4671606625246339e-04  3.4529048407112546e-04  1.4963753398800710e-04  6.0593037781479606e-05  2.2861454850350351e-05  8.0156732502818387e-06  2.6054091529149373e-06  7.8333248118292308e-07  2.1740618084837449e-07  5.5597496977673622e-08  1.3078882106481939e-08  2.8258871020117776e-09  5.6001002017258989e-10  1.0165324941257683e-10  1.6880563718120212e-11  2.5613301987008309e-12  3.5468024253193565e-13  4.4769364234649998e-14  5.1449278768472923e-15  5.3776525419502