<?xml version="1.0"?>
<VTKFile type="UnstructuredGrid"  version="0.1"  >
<UnstructuredGrid>
<Piece  NumberOfPoints="4225" NumberOfCells="8192">
<Points>
<DataArray  type="Float64"  NumberOfComponents="3"  format="ascii">0 0 0  0.015625 0 0  0.03125 0 0  0.046875 0 0  0.0625 0 0  0.078125 0 0  0.09375 0 0  0.109375 0 0  0.125 0 0  0.140625 0 0  0.15625 0 0  0.171875 0 0  0.1875 0 0  0.203125 0 0  0.21875 0 0  0.234375 0 0  0.25 0 0  0.265625 0 0  0.28125 0 0  0.296875 0 0  0.3125 0 0  0.328125 0 0  0.34375 0 0  0.359375 0 0  0.375 0 0  0.390625 0 0  0.40625 0 0  0.421875 0 0  0.4375 0 0  0.453125 0 0  0.46875 0 0  0.484375 0 0  0.5 0 0  0.515625 0 0  0.53125 0 0  0.546875 0 0  0.5625 0 0  0.578125 0 0  0.59375 0 0  0.609375 0 0  0.625 0 0  0.640625 0 0  0.65625 0 0  0.671875 0 0  0.6875 0 0  0.703125 0 0  0.71875 0 0  0.734375 0 0  0.75 0 0  0.765625 0 0  0.78125 0 0  0.796875 0 0  0.8125 0 0  0.828125 0 0  0.84375 0 0  0.859375 0 0  0.875 0 0  0.890625 0 0  0.90625 0 0  0.921875 0 0  0.9375 0 0  0.953125 0 0  0.96875 0 0  0.984375 0 0  1 0 0  0 0.015625 0  0.015625 0.015625 0  0.03125 0.015625 0  0.046875 0.015625 0  0.0625 0.015625 0  0.078125 0.015625 0  0.09375 0.015625 0  0.109375 0.015625 0  0.125 0.015625 0  0.140625 0.015625 0  0.15625 0.015625 0  0.171875 0.015625 0  0.1875 0.015625 0  0.203125 0.015625 0  0.21875 0.015625 0  0.234375 0.015625 0  0.25 0.015625 0  0.265625 0.015625 0  0.28125 0.015625 0  0.296875 0.015625 0  0.3125 0.015625 0  0.328125 0.015625 0  0.34375 0.015625 0  0.359375 0.015625 0  0.375 0.015625 0  0.390625 0.015625 0  0.40625 0.015625 0  0.421875 0.015625 0  0.4375 0.015625 0  0.453125 0.015625 0  0.46875 0.015625 0  0.484375 0.015625 0  0.5 0.015625 0  0.515625 0.015625 0  0.53125 0.015625 0  0.546875 0.015625 0  0.5625 0.015625 0  0.578125 0.015625 0  0.59375 0.015625 0  0.609375 0.015625 0  0.625 0.015625 0  0.640625 0.015625 0  0.65625 0.015625 0  0.671875 0.015625 0  0.6875 0.015625 0  0.703125 0.015625 0  0.71875 0.015625 0  0.734375 0.015625 0  0.75 0.015625 0  0.765625 0.015625 0  0.78125 0.015625 0  0.796875 0.015625 0  0.8125 0.015625 0  0.828125 0.015625 0  0.84375 0.015625 0  0.859375 0.015625 0  0.875 0.015625 0  0.890625 0.015625 0  0.90625 0.015625 0  0.921875 0.015625 0  0.9375 0.015625 0  0.953125 0.015625 0  0.96875 0.015625 0  0.984375 0.015625 0  1 0.015625 0  0 0.03125 0  0.015625 0.03125 0  0.03125 0.03125 0  0.046875 0.03125 0  0.0625 0.03125 0  0.078125 0.03125 0  0.09375 0.03125 0  0.109375 0.03125 0  0.125 0.03125 0  0.140625 0.03125 0  0.15625 0.03125 0  0.171875 0.03125 0  0.1875 0.03125 0  0.203125 0.03125 0  0.21875 0.03125 0  0.234375 0.03125 0  0.25 0.03125 0  0.265625 0.03125 0  0.28125 0.03125 0  0.296875 0.03125 0  0.3125 0.03125 0  0.328125 0.03125 0  0.34375 0.03125 0  0.359375 0.03125 0  0.375 0.03125 0  0.390625 0.03125 0  0.40625 0.03125 0  0.421875 0.03125 0  0.4375 0.03125 0  0.453125 0.03125 0  0.46875 0.03125 0  0.484375 0.03125 0  0.5 0.03125 0  0.515625 0.03125 0  0.53125 0.03125 0  0.546875 0.03125 0  0.5625 0.03125 0  0.578125 0.03125 0  0.59375 0.03125 0  0.609375 0.03125 0  0.625 0.03125 0  0.640625 0.03125 0  0.65625 0.03125 0  0.671875 0.03125 0  0.6875 0.03125 0  0.703125 0.03125 0  0.71875 0.03125 0  0.734375 0.03125 0  0.75 0.03125 0  0.765625 0.03125 0  0.78125 0.03125 0  0.796875 0.03125 0  0.8125 0.03125 0  0.828125 0.03125 0  0.84375 0.03125 0  0.859375 0.03125 0  0.875 0.03125 0  0.890625 0.03125 0  0.90625 0.03125 0  0.921875 0.03125 0  0.9375 0.03125 0  0.953125 0.03125 0  0.96875 0.03125 0  0.984375 0.03125 0  1 0.03125 0  0 0.046875 0  0.015625 0.046875 0  0.03125 0.046875 0  0.046875 0.046875 0  0.0625 0.046875 0  0.078125 0.046875 0  0.09375 0.046875 0  0.109375 0.046875 0  0.125 0.046875 0  0.140625 0.046875 0  0.15625 0.046875 0  0.171875 0.046875 0  0.1875 0.046875 0  0.203125 0.046875 0  0.21875 0.046875 0  0.234375 0.046875 0  0.25 0.046875 0  0.265625 0.046875 0  0.28125 0.046875 0  0.296875 0.046875 0  0.3125 0.046875 0  0.328125 0.046875 0  0.34375 0.046875 0  0.359375 0.046875 0  0.375 0.046875 0  0.390625 0.046875 0  0.40625 0.046875 0  0.421875 0.046875 0  0.4375 0.046875 0  0.453125 0.046875 0  0.46875 0.046875 0  0.484375 0.046875 0  0.5 0.046875 0  0.515625 0.046875 0  0.53125 0.046875 0  0.546875 0.046875 0  0.5625 0.046875 0  0.578125 0.046875 0  0.59375 0.046875 0  0.609375 0.046875 0  0.625 0.046875 0  0.640625 0.046875 0  0.65625 0.046875 0  0.671875 0.046875 0  0.6875 0.046875 0  0.703125 0.046875 0  0.71875 0.046875 0  0.734375 0.046875 0  0.75 0.046875 0  0.765625 0.046875 0  0.78125 0.046875 0  0.796875 0.046875 0  0.8125 0.046875 0  0.828125 0.046875 0  0.84375 0.046875 0  0.859375 0.046875 0  0.875 0.046875 0  0.890625 0.046875 0  0.90625 0.046875 0  0.921875 0.046875 0  0.9375 0.046875 0  0.953125 0.046875 0  0.96875 0.046875 0  0.984375 0.046875 0  1 0.046875 0  0 0.0625 0  0.015625 0.0625 0  0.03125 0.0625 0  0.046875 0.0625 0  0.0625 0.0625 0  0.078125 0.0625 0  0.09375 0.0625 0  0.109375 0.0625 0  0.125 0.0625 0  0.140625 0.0625 0  0.15625 0.0625 0  0.171875 0.0625 0  0.1875 0.0625 0  0.203125 0.0625 0  0.21875 0.0625 0  0.234375 0.0625 0  0.25 0.0625 0  0.265625 0.0625 0  0.28125 0.0625 0  0.296875 0.0625 0  0.3125 0.0625 0  0.328125 0.0625 0  0.34375 0.0625 0  0.359375 0.0625 0  0.375 0.0625 0  0.390625 0.0625 0  0.40625 0.0625 0  0.421875 0.0625 0  0.4375 0.0625 0  0.453125 0.0625 0  0.46875 0.0625 0  0.484375 0.0625 0  0.5 0.0625 0  0.515625 0.0625 0  0.53125 0.0625 0  0.546875 0.0625 0  0.5625 0.0625 0  0.578125 0.0625 0  0.59375 0.0625 0  0.609375 0.0625 0  0.625 0.0625 0  0.640625 0.0625 0  0.65625 0.0625 0  0.671875 0.0625 0  0.6875 0.0625 0  0.703125 0.0625 0  0.71875 0.0625 0  0.734375 0.0625 0  0.75 0.0625 0  0.765625 0.0625 0  0.78125 0.0625 0  0.796875 0.0625 0  0.8125 0.0625 0  0.828125 0.0625 0  0.84375 0.0625 0  0.859375 0.0625 0  0.875 0.0625 0  0.890625 0.0625 0  0.90625 0.0625 0  0.921875 0.0625 0  0.9375 0.0625 0  0.953125 0.0625 0  0.96875 0.0625 0  0.984375 0.0625 0  1 0.0625 0  0 0.078125 0  0.015625 0.078125 0  0.03125 0.078125 0  0.046875 0.078125 0  0.0625 0.078125 0  0.078125 0.078125 0  0.09375 0.078125 0  0.109375 0.078125 0  0.125 0.078125 0  0.140625 0.078125 0  0.15625 0.078125 0  0.171875 0.078125 0  0.1875 0.078125 0  0.203125 0.078125 0  0.21875 0.078125 0  0.234375 0.078125 0  0.25 0.078125 0  0.265625 0.078125 0  0.28125 0.078125 0  0.296875 0.078125 0  0.3125 0.078125 0  0.328125 0.078125 0  0.34375 0.078125 0  0.359375 0.078125 0  0.375 0.078125 0  0.390625 0.078125 0  0.40625 0.078125 0  0.421875 0.078125 0  0.4375 0.078125 0  0.453125 0.078125 0  0.46875 0.078125 0  0.484375 0.078125 0  0.5 0.078125 0  0.515625 0.078125 0  0.53125 0.078125 0  0.546875 0.078125 0  0.5625 0.078125 0  0.578125 0.078125 0  0.59375 0.078125 0  0.609375 0.078125 0  0.625 0.078125 0  0.640625 0.078125 0  0.65625 0.078125 0  0.671875 0.078125 0  0.6875 0.078125 0  0.703125 0.078125 0  0.71875 0.078125 0  0.734375 0.078125 0  0.75 0.078125 0  0.765625 0.078125 0  0.78125 0.078125 0  0.796875 0.078125 0  0.8125 0.078125 0  0.828125 0.078125 0  0.84375 0.078125 0  0.859375 0.078125 0  0.875 0.078125 0  0.890625 0.078125 0  0.90625 0.078125 0  0.921875 0.078125 0  0.9375 0.078125 0  0.953125 0.078125 0  0.96875 0.078125 0  0.984375 0.078125 0  1 0.078125 0  0 0.09375 0  0.015625 0.09375 0  0.03125 0.09375 0  0.046875 0.09375 0  0.0625 0.09375 0  0.078125 0.09375 0  0.09375 0.09375 0  0.109375 0.09375 0  0.125 0.09375 0  0.140625 0.09375 0  0.15625 0.09375 0  0.171875 0.09375 0  0.1875 0.09375 0  0.203125 0.09375 0  0.21875 0.09375 0  0.234375 0.09375 0  0.25 0.09375 0  0.265625 0.09375 0  0.28125 0.09375 0  0.296875 0.09375 0  0.3125 0.09375 0  0.328125 0.09375 0  0.34375 0.09375 0  0.359375 0.09375 0  0.375 0.09375 0  0.390625 0.09375 0  0.40625 0.09375 0  0.421875 0.09375 0  0.4375 0.09375 0  0.453125 0.09375 0  0.46875 0.09375 0  0.484375 0.09375 0  0.5 0.09375 0  0.515625 0.09375 0  0.53125 0.09375 0  0.546875 0.09375 0  0.5625 0.09375 0  0.578125 0.09375 0  0.59375 0.09375 0  0.609375 0.09375 0  0.625 0.09375 0  0.640625 0.09375 0  0.65625 0.09375 0  0.671875 0.09375 0  0.6875 0.09375 0  0.703125 0.09375 0  0.71875 0.09375 0  0.734375 0.09375 0  0.75 0.09375 0  0.765625 0.09375 0  0.78125 0.09375 0  0.796875 0.09375 0  0.8125 0.09375 0  0.828125 0.09375 0  0.84375 0.09375 0  0.859375 0.09375 0  0.875 0.09375 0  0.890625 0.09375 0  0.90625 0.09375 0  0.921875 0.09375 0  0.9375 0.09375 0  0.953125 0.09375 0  0.96875 0.09375 0  0.984375 0.09375 0  1 0.09375 0  0 0.109375 0  0.015625 0.109375 0  0.03125 0.109375 0  0.046875 0.109375 0  0.0625 0.109375 0  0.078125 0.109375 0  0.09375 0.109375 0  0.109375 0.109375 0  0.125 0.109375 0  0.140625 0.109375 0  0.15625 0.109375 0  0.171875 0.109375 0  0.1875 0.109375 0  0.203125 0.109375 0  0.21875 0.109375 0  0.234375 0.109375 0  0.25 0.109375 0  0.265625 0.109375 0  0.28125 0.109375 0  0.296875 0.109375 0  0.3125 0.109375 0  0.328125 0.109375 0  0.34375 0.109375 0  0.359375 0.109375 0  0.375 0.109375 0  0.390625 0.109375 0  0.40625 0.109375 0  0.421875 0.109375 0  0.4375 0.109375 0  0.453125 0.109375 0  0.46875 0.109375 0  0.484375 0.109375 0  0.5 0.109375 0  0.515625 0.109375 0  0.53125 0.109375 0  0.546875 0.109375 0  0.5625 0.109375 0  0.578125 0.109375 0  0.59375 0.109375 0  0.609375 0.109375 0  0.625 0.109375 0  0.640625 0.109375 0  0.65625 0.109375 0  0.671875 0.109375 0  0.6875 0.109375 0  0.703125 0.109375 0  0.71875 0.109375 0  0.734375 0.109375 0  0.75 0.109375 0  0.765625 0.109375 0  0.78125 0.109375 0  0.796875 0.109375 0  0.8125 0.109375 0  0.828125 0.109375 0  0.84375 0.109375 0  0.859375 0.109375 0  0.875 0.109375 0  0.890625 0.109375 0  0.90625 0.109375 0  0.921875 0.109375 0  0.9375 0.109375 0  0.953125 0.109375 0  0.96875 0.109375 0  0.984375 0.109375 0  1 0.109375 0  0 0.125 0  0.015625 0.125 0  0.03125 0.125 0  0.046875 0.125 0  0.0625 0.125 0  0.078125 0.125 0  0.09375 0.125 0  0.109375 0.125 0  0.125 0.12
[...]
<PointData  Scalars="f_4824"> 
<DataArray  type="Float64"  Name="f_4824"  format="ascii">-5.1705008431212179e-15  -5.3055846310240918e-15  -5.5048393288906626e-15  -5.7206634281167992e-15  -5.9376530540599500e-15  -6.1570737639272626e-15  -6.3789516459850409e-15  -6.6036425024495816e-15  -6.8314710959230094e-15  -7.0627288279824943e-15  -7.2975858226640735e-15  -7.5359378794080052e-15  -7.7771052960162460e-15  -8.0192547422358198e-15  -8.2583436606833122e-15  -8.4863507756473536e-15  -8.6886618893590378e-15  -8.8409023245068666e-15  -8.9063634742681272e-15  -8.8362764282942981e-15  -8.5757712337699811e-15  -8.0772303765888712e-15  -7.3191753141100560e-15  -6.3239307417030592e-15  -5.1643993208325955e-15  -3.9528852728995429e-15  -2.8133059269457801e-15  -1.8476481022275143e-15  -1.1114123908415219e-15  -6.0783895171599170e-16  -3.0034851547143685e-16  -1.3406806176163078e-16  -5.5523870940944358e-17  -2.3952825687132906e-17  -1.3776969608234499e-17  -1.1611066821632844e-17  -1.1676865823662865e-17  -1.2015216384000040e-17  -1.2193168998696112e-17  -1.2226153718687332e-17  -1.2191814171144903e-17  -1.2139364842782746e-17  -1.2089540783310889e-17  -1.2048375173643159e-17  -1.2016259010447013e-17  -1.1991934771692995e-17  -1.1973889860630956e-17  -1.1960751912810801e-17  -1.1951368903829230e-17  -1.1944804425794910e-17  -1.1940313532694564e-17  -1.1937315430328829e-17  -1.1935366861961302e-17  -1.1934137296284162e-17  -1.1933386440069736e-17  -1.1932944405622266e-17  -1.1932694717169387e-17  -1.1932560192385335e-17  -1.1932491595222276e-17  -1.1932458835836921e-17  -1.1932444405111014e-17  -1.1932438679602626e-17  -1.1932436717959987e-17  -1.1932436187620930e-17  -1.1932436102391849e-17  -5.1741577049020322e-15  -5.2966160214594262e-15  -5.5057583625983020e-15  -5.7205087926138612e-15  -5.9376964549554957e-15  -6.1570857895167872e-15  -6.3789532632264224e-15  -6.6036083202374743e-15  -6.8313596337712804e-15  -7.0624484036227677e-15  -7.2969343520611161e-15  -7.5344626669413308e-15  -7.7737771133952980e-15  -8.0117129886506120e-15  -8.2412120644448376e-15  -8.4477441007078074e-15  -8.6036943975032962e-15  -8.6613631955266903e-15  -8.5476979667466430e-15  -8.1672048740671473e-15  -7.4209946493267899e-15  -6.2453518597428030e-15  -4.6605262942820213e-15  -2.8050925753144399e-15  -9.2652090153042028e-16  6.8414621112731722e-16  1.7914536158132632e-15  2.2992189944134639e-15  2.2734786346655217e-15  1.8954447849936392e-15  1.3764811993099370e-15  8.8307603121909161e-16  5.0308715681601754e-16  2.5376174513127813e-16  1.1118626861912454e-16  3.9274137932329490e-17  7.0710516439440740e-18  -5.7665450703237331e-18  -1.0309443525179796e-17  -1.1712576744985505e-17  -1.2065126534692549e-17  -1.2111009804023799e-17  -1.2083699878042152e-17  -1.2047191124839794e-17  -1.2015957825530115e-17  -1.1991799164978353e-17  -1.1973795803944483e-17  -1.1960678415728135e-17  -1.1951311035845021e-17  -1.1944759573064703e-17  -1.1940279489822614e-17  -1.1937290192493287e-17  -1.1935348629117675e-17  -1.1934124493117942e-17  -1.1933377727197048e-17  -1.1932938679211961e-17  -1.1932691097427774e-17  -1.1932558002985034e-17  -1.1932490336241718e-17  -1.1932458153274325e-17  -1.1932444059872463e-17  -1.1932438518335710e-17  -1.1932436647577053e-17  -1.1932436154745629e-17  -1.1932436078520331e-17  -5.1725162606316226e-15  -5.2910907707895681e-15  -5.5062866892485622e-15  -5.7204207696898047e-15  -5.9377272655805275e-15  -6.1570923765819536e-15  -6.3789406260944879e-15  -6.6035449474387374e-15  -6.8311811193205278e-15  -7.0619971432028830e-15  -7.2957932663143799e-15  -7.5314258199714805e-15  -7.7651804273051640e-15  -7.9864823589415237e-15  -8.1675345100732319e-15  -8.2413266310336736e-15  -8.0623890674010045e-15  -7.3521975051950895e-15  -5.6520712738742885e-15  -2.3377599192024845e-15  3.2323716201272289e-15  1.1401295931489757e-14  2.1811015886544795e-14  3.3139126892525916e-14  4.3240709956842769e-14  4.9790680638761235e-14  5.1191571094605061e-14  4.7263583594686887e-14  3.9305257799557292e-14  2.9492709712635580e-14  1.9987260942223745e-14  1.2240798591419942e-14  6.7759350576568207e-15  3.3892125067236201e-15  1.5296138485939652e-15  6.2002674689243632e-16  2.2227540235586947e-16  6.6407310513573909e-17  1.1596681198549613e-17  -5.6953830738024293e-18  -1.0569357049527628e-17  -1.1774452166508106e-17  -1.2015076201542535e-17  -1.2034435038211741e-17  -1.2013726844108534e-17  -1.1991372402292150e-17  -1.1973661998560250e-17  -1.1960600001721061e-17  -1.1951252612954280e-17  -1.1944714662736137e-17  -1.1940245444151624e-17  -1.1937264960247036e-17  -1.1935330405018375e-17  -1.1934111700419304e-17  -1.1933369025456043e-17  -1.1932932963670700e-17  -1.1932687487585809e-17  -1.1932555822021670e-17  -1.1932489083949055e-17  -1.1932457475493414e-17  -1.1932443717289785e-17  -1.1932438357126611e-17  -1.1932436573974545e-17  -1.1932436115234045e-17  -1.1932436046514025e-17  -5.1695387178997275e-15  -5.2875607614171304e-15  -5.5066028679547679e-15  -5.7203674586767158e-15  -5.9377481046310192e-15  -6.1570915148095451e-15  -6.3789091745865023e-15  -6.6034299827952033e-15  -6.8308363007362473e-15  -7.0609119991003296e-15  -7.2919826559380409e-15  -7.5170971789222609e-15  -7.7113715085133382e-15  -7.7944524752306880e-15  -7.5332058158730402e-15  -6.3260252800299192e-15  -2.8072007721912779e-15  5.7145711367205276e-15  2.3751975484474152e-14  5.7508804837301206e-14  1.1337385609934162e-13  1.9467803434429356e-13  2.9756097902695913e-13  4.0828878919088887e-13  5.0478719775308868e-13  5.6335425033276041e-13  5.6806993917393536e-13  5.1785546610673222e-13  4.2692542498487857e-13  3.1837063624544560e-13  2.1479404665305049e-13  1.3112005338357975e-13  7.2427534965246331e-14  3.6201830427306015e-14  1.6372068169379582e-14  6.6964284641097580e-15  2.4737310899390623e-15  8.2141320903025810e-16  2.4073348750310213e-16  5.7237647441822358e-17  5.0721722354077842e-18  -8.2566073082616715e-18  -1.1299120869405073e-17  -1.1902511646130643e-17  -1.1991650984498473e-17  -1.1987956451680499e-17  -1.1973120972552796e-17  -1.1960471412925297e-17  -1.1951188595483552e-17  -1.1944669187441239e-17  -1.1940211349475994e-17  -1.1937239729772017e-17  -1.1935312189373894e-17  -1.1934098918173231e-17  -1.1933360334847477e-17  -1.1932927259001031e-17  -1.1932683887625180e-17  -1.1932553649432619e-17  -1.1932487838171721e-17  -1.1932456802034186e-17  -1.1932443376317282e-17  -1.1932438194075724e-17  -1.1932436494574818e-17  -1.1932436066625558e-17  -1.1932436004194200e-17  -5.1666510091423570e-15  -5.2852360637843265e-15  -5.5067970483000245e-15  -5.7203358524611412e-15  -5.9377630226807820e-15  -6.1570776356526616e-15  -6.3788310633503697e-15  -6.6031307639743534e-15  -6.8295974290266396e-15  -7.0552288079826163e-15  -7.2655414837501073e-15  -7.4001524496169841e-15  -7.2342669833072406e-15  -6.0209743009283312e-15  -1.5564830256516358e-15  1.1898204922997633e-14  4.7430640924713896e-14  1.3087845084453965e-13  3.0556724472712745e-13  6.3097281589602463e-13  1.1681147371986111e-12  1.9483017236455490e-12  2.9335041959274651e-12  3.9909366028540340e-12  4.9082992154258711e-12  5.4586344231218620e-12  5.4906432674654784e-12  4.9959369391355821e-12  4.1126351965972611e-12  3.0632209066780941e-12  2.0645654984307465e-12  1.2592186514697291e-12  6.9505353638976961e-13  3.4721162284245035e-13  1.5697570590805694e-13  6.4226828242279339e-14  2.3778302551827221e-14  7.9616504974234645e-15  2.4064444865823699e-15  6.5168567624813408e-16  1.5271918017010579e-16  2.4925193631641462e-17  -4.5521927299724845e-18  -1.0661355364956148e-17  -1.1785036602668275e-17  -1.1956773502096311e-17  -1.1968801654430627e-17  -1.1959877947444254e-17  -1.1951072861134726e-17  -1.1944618510149292e-17  -1.1940176784395852e-17  -1.1937214466441572e-17  -1.1935293979607810e-17  -1.1934086146207697e-17  -1.1933351655359310e-17  -1.1932921565189513e-17  -1.1932680297498973e-17  -1.1932551485081203e-17  -1.1932486598539971e-17  -1.1932456132022392e-17  -1.1932443035258362e-17  -1.1932438026584044e-17  -1.1932436406307261e-17  -1.1932436006045304e-17  -1.1932435948909393e-17  -5.1642790097191282e-15  -5.2836770929582927e-15  -5.5069250348536606e-15  -5.7203160103122065e-15  -5.9377606225849768e-15  -6.1570194783213506e-15  -6.3785560541673328e-15  -6.6016644837600006e-15  -6.8213870183720498e-15  -7.0109094874505438e-15  -7.0440828473921932e-15  -6.3915809571471763e-15  -3.0717950077077347e-15  9.5144313045187365e-15  5.0839951830037113e-14  1.7155735394696309e-13  4.8696648392362958e-13  1.2241742724661417e-12  2.7629699426286457e-12  5.6229306755759238e-12  1.0334237827959089e-11  1.7163785684493740e-11  2.5770312468259462e-11  3.4986299287131247e-11  4.2956034729887394e-11  4.7704770907329510e-11  4.7925449134285876e-11  4.3559803081343783e-11  3.5823119017281331e-11  2.6658459377337359e-11  1.7952757396358818e-11  1.0941474081221671e-11  6.0351326588648993e-12  3.0128349137066035e-12  1.3612744609911318e-12  5.5666549698673867e-13  2.0601852141901355e-13  6.8999039149701628e-14  2.0907081045991412e-14  5.7261465957627606e-15  1.4121479682704957e-15  3.0773901966703900e-16  5.2903040608227118e-17  -1.0248433329879932e-19  -1.0029815067196884e-17  -1.1692823248455324e-17  -1.1932845201449694e-17  -1.1955396608681584e-17  -1.1950525194715788e-17  -1.1944524455921249e-17  -1.1940138284694411e-17  -1.1937188886148695e-17  -1.1935275754656492e-17  -1.1934073383106798e-17  -1.1933342986894548e-17  -1.1932915882195567e-17  -1.1932676717102221e-17  -1.1932549328678923e-17  -1.1932485364343515e-17  -1.1932455463989820e-17  -1.1932442691643660e-17  -1.1932437851322417e-17  -1.1932436305557288e-17  -1.1932435930114861e-17  -1.1932435877459053e-17  -5.1624649694588593e-15  -5.2826039999615260e-15  -5.5069942379622074e-15  -5.7202861682937960e-15  -5.9377263190310495e-15  -6.1567824150754595e-15  -6.3769627231001315e-15  -6.5912910591073531e-15  -6.7583351261477888e-15  -6.6601612281199476e-15  -5.2738332783985328e-15  1.6893082124264241e-15  3.0257860476058638e-14  1.3368789737187618e-13  4.6871362239050114e-13  1.4418822808493914e-12  3.9758968186842145e-12  9.8826257301249690e-12  2.2181908229602213e-11  4.4988491871737620e-11  8.2475098590725952e-11  1.3669651997205095e-10  2.0487104622556658e-10  2.7768861174707743e-10  3.4044689883746955e-10  3.7757959003529563e-10  3.7886464339662607e-10  3.4396893063796971e-10  2.8258647235735535e-10  2.1009324370354936e-10  1.4136010673322413e-10  8.6082525076934200e-11  4.7444894277227897e-11  2.3667748721949897e-11  1.0686059934784763e-11  4.3668185268836725e-12  1.6150515649793630e-12  5.4057986296596060e-13  1.6373807084763526e-13  4.4872352576971934e-14  1.1119978439390430e-14  2.4858477312256863e-15  4.9499964896751333e-16  8.1065952869245482e-17  3.4486549564782627e-18  -9.6686980815904377e-18  -1.1657924696588387e-17  -1.1921584488776198e-17  -1.1946723092394686e-17  -1.1944104010946674e-17  -1.1940070203299935e-17  -1.1937160888573975e-17  -1.1935257359088792e-17  -1.1934060618462187e-17  -1.1933334328794153e-17  -1.1932910209903700e-17  -1.1932673146212628e-17  -1.1932547179664882e-17  -1.1932484134354587e-17  -1.1932454795700136e-17  -1.1932442342129855e-17  -1.1932437664190467e-17  -1.1932436188095650e-17  -1.1932435834856491e-17  -1.1932435786007205e-17  -5.1610946434420490e-15  -5.2818534686759843e-15  -5.5070462143526443e-15  -5.7202705250941490e-15  -5.9375502024274161e-15  -6.1552686021770389e-15  -6.3658987386924321e-15  -6.5165653868746263e-15  -6.2979774269299327e-15  -4.0916723713647468e-15  7.6766265402399448e-15  6.0666043306219301e-14  2.7282154259811624e-13  1.0347317762586278e-12  3.4920870702919196e-12  1.0606732320346118e-11  2.9078250267746133e-11  7.2016671609750422e-11  1.6119076394219725e-10  3.2612934420313532e-10  5.9657017363155333e-10  9.8679185421942083e-10  1.4762054005117694e-09  1.9974929256141150e-09  2.4450967780307844e-09  2.7078784264542690e-09  2.7134954318326628e-09  2.4605640082937695e-09  2.0191974088147441e-09  1.4996442723535609e-09  1.0080537729598817e-09  6.1330915165940358e-10  3.3774076723188483e-10  1.6834393757237768e-10  7.5948078657378549e-11  3.1012054890247565e-11  1.1460978796848752e-11  3.8332493495913296e-12  1.1602099791695870e-12  3.1775321870578893e-13  7.8733429556264375e-14  1.7642444699725687e-14  3.5684893705558762e-15  6.4479861771472350e-16  9.6962074028008633e-17  4.3588609849945310e-18  -9.7552889566654207e-18  -1.1688225493567901e-17  -1.1920807705337280e-17  -1.1941468664627734e-17  -1.1939801629762564e-17  -1.1937116496435749e-17  -1.1935237760006510e-17  -1.1934047783280933e-17  -1.1933325676831825e-17  -1.1932904547919335e-17  -1.1932669584386341e-17  -1.1932545037044587e-17  -1.1932482906632065e-17  -1.1932454123985590e-17  -1.1932441982410341e-17  -1.1932437460260481e-17  -1.1932436048991049e-17  -1.1932435715589529e-17  -1.1932435669987028e-17  -5.1601296870331688e-15  -5.2813538770086566e-15  -5.5070749862328851e-15  -5.7201016079562283e-15  -5.9362989152215406e-15  -6.1454326216451723e-15  -6.2924660277934150e-15  -6.0164139983419409e-15  -3.2165959487235968e-15  1.3056034250683849e-14  9.3849793681139732e-14  4.5172637246720751e-13  1.8755555351788448e-12  6.9678557004429909e-12  2.3333702883817262e-11  7.0560230161435816e-11  1.9278650010615766e-10  4.7605311598782379e-10  1.0626355392590560e-09  2.1445698016435286e-09  3.9137594757135014e-09  6.4597069398393895e-09  9.6440237182771275e-09  1.3025295040654665e-08  1.5916679337872608e-08  1.7599449427512161e-08  1.7610336542279884e-08  1.5947491087705846e-08  1.3070770954722643e-08  9.6965193105723010e-09  6.5110604029588521e-09  3.9574715215995669e-09  2.1772925216469920e-09  1.0842890961590901e-09  4.8875697199721820e-10  1.9940892947699456e-10  7.3633989940917111e-11  2.4607463382864911e-11  7.4417891023670721e-12  2.0364389853681217e-12  5.0419963874911695e-13  1.1292828549463108e-13  2.2872031334639982e-14  4.1818326429102206e-15  6.8307571400405091e-16  9.2182442328657802e-17  2.1427533363954115e-18  -1.0230968914212857e-17  -1.1759430403006871e-17  -1.1925282337802973e-17  -1.1938307980810031e-17  -1.1936972027398449e-17  -1.1935210781605868e-17  -1.1934034465691465e-17  -1.1933317006067811e-17  -1.1932898894562595e-17  -1.1932666030774778e-17  -1.1932542899192877e-17  -1.1932481678317791e-17  -1.1932453444595802e-17  -1.1932441607129172e-17  -1.1932437233704732e-17  -1.1932435882507720e-17  -1.1932435566818175e-17  -1.1932435523994129e-17  -5.1594219129460044e-15  -5.2809325834712656e-15  -5.5069483192067203e-15  -5.7192670441114406e-15  -5.9291229523166232e-15  -6.0856099226517030e-15  -5.8420053268107794e-15  -2.9544284521404408e-15  1.5578163100486507e-14  1.1722312373173481e-13  6.1515831140997983e-13  2.8077339880764727e-12  1.1492579544902587e-11  4.2429591042864880e-11  1.4147789193743801e-10  4.2625546872772355e-10  1.1607028515603327e-09  2.8571195136637019e-09  6.3587408444470441e-09  1.2797455417273358e-08  2.3294630212356175e-08  3.8355947640370748e-08  5.7136543059032367e-08  7.7011124125866635e-08  9.3928874881192251e-08  1.0367943454317398e-07  1.0357842753919147e-07  9.3660860768529870e-08  7.6662260009166847e-08  5.6800976343374907e-08  3.8096962596445067e-08  2.3130689369446655e-08  1.2712984319546679e-08  6.3249636828156367e-09  2.8484265429481562e-09  1.1610944091169532e-09  4.2837000366501508e-10  1.4303021421389694e-10  4.3217239723859870e-11  1.1815863132602349e-11  2.9228546420799590e-12  6.5407884049519122e-13  1.3239227657271511e-13  2.4228847079001549e-14  4.0014858085070092e-15  5.8886816734495982e-16  6.9355579152878760e-17  -2.0086717273264423e-18  -1.0850198258468549e-17  -1.1834375669377915e-17  -1.1930067549837542e-17  -1.1936277062643457e-17  -1.1935143223825208e-17  -1.1934018454443094e-17  -1.1933308183190729e-17  -1.1932893241997325e-17  -1.1932662483711066e-17  -1.1932540763623167e-17  -1.1932480445432194e-17  -1.1932452752056915e-17  -1.1932441209791877e-17  -1.1932436977705199e-17  -1.1932435681989062e-17  -1.1932435382109477e-17  -1.1932435341669474e-17  -5.1587966862781542e-15  -5.2806258596775515e-15  -5.5066020825773376e-15  -5.7149459305044673e-15  -5.8884678348908576e-15  -5.7482316124448634e-15  -3.3150662740221607e-15  1.4142005090594658e-14  1.2001660420536915e-13  6.9325306821795864e-13  3.4840381089491421e-12  1.5712039437979307e-11  6.3924125679458906e-11  2.3490356531320040e-10  7.7997762710019906e-10  2.3407197051460036e-09  6.3501217392746799e-09  1.5576306134641381e-08  3.4552250741603449e-08  6.9325383716483088e-08  1.2582916717672287e-07  2.0663620478167056e-07  3.0706060534224564e-07  4.1293746095465737e-07  5.0260884436978861e-07  5.5372996348896517e-07  5.5222697419736566e-07  4.9855358391970208e-07  4.0747130049480090e-07  3.0149697930439711e-07  2.0196357602372520e-07  1.2247977788310097e-07  6.7243133977164070e-08  3.3420174856982368e-08  1.5035779096606502e-08  6.1231276263452713e-09  2.2569364154988397e-09  7.5288314880458149e-10  2.2727790280394775e-10  6.2081670279594726e-11  1.5342558141419889e-11  3.4301153799841110e-12  6.9364851767241129e-13  1.2685662531367485e-13  2.0971492216154111e-14  3.1260926030799893e-15  4.1231592913363426e-16  3.9898526721249363e-17  -6.2215808126330620e-18  -1.1372293462073082e-17  -1.1888351763196161e-17  -1.1932853878792305e-17  -1.1934874755264806e-17  -1.1933989083172239e-17  -1.1933298566591243e-17  -1.1932887554367594e-17  -1.1932658939428957e-17  -1.1932538626702658e-17  -1.1932479202673103e-17  -1.1932452039537010e-17  -1.1932440782667851e-17  -1.1932436684345661e-17  -1.1932435439727697e-17  -1.1932435153960768e-17  -1.1932435115570273e-17  -5.1585860357690439e-15  -5.2803471968160813e-15  -5.5043038388474017e-15  -5.6916311925116388e-15  -5.6776646806898959e-15  -4.0106481770438362e-15  9.6354362873034243e-15  1.0127883897747967e-13  6.4928992260974945e-13  3.5958934879331639e-12  1.7859610232053974e-11  8.0020294544133948e-11  3.2382897936180396e-10  1.1841244330071418e-09  3.9134422307865734e-09  1.1692286811031691e-08  3.1587238172234409e-08  7.7176086492542337e-08  1.7056657708949358e-07  3.4105126743120472e-07  6.1705976430300013e-07  1.0103606657687733e-06  1.4973368728446500e-06  2.0086358050627138e-06  2.4392636186016958e-06  2.6817736628493969e-06  2.6694035885855015e-06  2.4057532688305719e-06  1.9630978195320558e-06  1.4504059829956112e-06  9.7026522283093794e-07  5.8767189197274968e-07  3.2226070621918316e-07  1.5998765924924270e-07  7.1902762411207393e-08  2.9251809707655653e-08  1.0771378075973220e-08  3.5897156033324118e-09  1.0826148552399705e-09  2.9543680514271228e-10  7.2942491332069569e-11  1.6291777227488586e-11  3.2913399549358743e-12  6.0135860413278919e-13  9.9349417163912370e-14  1.4831907361626965e-14  1.9928764642779765e-15  2.3281762638920776e-16  1.5062353358059886e-17  -9.2499797812265454e-18  -1.1697071891208073e-17  -1.1917254717343671e-17  -1.1933710558429108e-17  -1.1933900176789407e-17  -1.1933285382622014e-17  -1.1932881679551424e-17  -1.1932655387497208e-17  -1.1932536483215410e-17  -1.1932477943214851e-17  -1.1932451298713692e-17  -1.1932440316680857e-17  -1.1932436344486269e-17  -1.1932435146822449e-17  -1.1932434873655806e-17  -1.1932434837028968e-17  -5.1581121325349478e-15  -5.2789147884430153e-15  -5.4930194931734071e-15  -5.5816258085957881e-15  -4.6779338395190630e-15  4.1953364986070932e-15  7.0398088965133691e-14  5.0735443346078285e-13  3.0991985000109475e-12  1.6942187173529171e-11  8.3526037565976699e-11  3.7190372132162380e-10  1.4962232168503323e-09  5.4406089458141526e-09  1.7885288316576639e-08  5.3167533773839523e-08  1.4295430072307680e-07  3.4772700563238627e-07  7.6533580742823210e-07  1.5244427820301283e-06  2.7483987845907683e-06  4.4855218097316852e-06  6.6276130724571164e-06  8.8664585532038525e-06  1.0740437228382999e-05  1.1781338704632298e-05  1.1702619566086917e-05  1.0526771007098469e-05  8.5749603835954439e-06  6.3254112299316477e-06  4.2252638583925227e-06  2.555