<?xml version="1.0"?>
<VTKFile type="UnstructuredGrid"  version="0.1"  >
<UnstructuredGrid>
<Piece  NumberOfPoints="4225" NumberOfCells="8192">
<Points>
<DataArray  type="Float64"  NumberOfComponents="3"  format="ascii">0 0 0  0.015625 0 0  0.03125 0 0  0.046875 0 0  0.0625 0 0  0.078125 0 0  0.09375 0 0  0.109375 0 0  0.125 0 0  0.140625 0 0  0.15625 0 0  0.171875 0 0  0.1875 0 0  0.203125 0 0  0.21875 0 0  0.234375 0 0  0.25 0 0  0.265625 0 0  0.28125 0 0  0.296875 0 0  0.3125 0 0  0.328125 0 0  0.34375 0 0  0.359375 0 0  0.375 0 0  0.390625 0 0  0.40625 0 0  0.421875 0 0  0.4375 0 0  0.453125 0 0  0.46875 0 0  0.484375 0 0  0.5 0 0  0.515625 0 0  0.53125 0 0  0.546875 0 0  0.5625 0 0  0.578125 0 0  0.59375 0 0  0.609375 0 0  0.625 0 0  0.640625 0 0  0.65625 0 0  0.671875 0 0  0.6875 0 0  0.703125 0 0  0.71875 0 0  0.734375 0 0  0.75 0 0  0.765625 0 0  0.78125 0 0  0.796875 0 0  0.8125 0 0  0.828125 0 0  0.84375 0 0  0.859375 0 0  0.875 0 0  0.890625 0 0  0.90625 0 0  0.921875 0 0  0.9375 0 0  0.953125 0 0  0.96875 0 0  0.984375 0 0  1 0 0  0 0.015625 0  0.015625 0.015625 0  0.03125 0.015625 0  0.046875 0.015625 0  0.0625 0.015625 0  0.078125 0.015625 0  0.09375 0.015625 0  0.109375 0.015625 0  0.125 0.015625 0  0.140625 0.015625 0  0.15625 0.015625 0  0.171875 0.015625 0  0.1875 0.015625 0  0.203125 0.015625 0  0.21875 0.015625 0  0.234375 0.015625 0  0.25 0.015625 0  0.265625 0.015625 0  0.28125 0.015625 0  0.296875 0.015625 0  0.3125 0.015625 0  0.328125 0.015625 0  0.34375 0.015625 0  0.359375 0.015625 0  0.375 0.015625 0  0.390625 0.015625 0  0.40625 0.015625 0  0.421875 0.015625 0  0.4375 0.015625 0  0.453125 0.015625 0  0.46875 0.015625 0  0.484375 0.015625 0  0.5 0.015625 0  0.515625 0.015625 0  0.53125 0.015625 0  0.546875 0.015625 0  0.5625 0.015625 0  0.578125 0.015625 0  0.59375 0.015625 0  0.609375 0.015625 0  0.625 0.015625 0  0.640625 0.015625 0  0.65625 0.015625 0  0.671875 0.015625 0  0.6875 0.015625 0  0.703125 0.015625 0  0.71875 0.015625 0  0.734375 0.015625 0  0.75 0.015625 0  0.765625 0.015625 0  0.78125 0.015625 0  0.796875 0.015625 0  0.8125 0.015625 0  0.828125 0.015625 0  0.84375 0.015625 0  0.859375 0.015625 0  0.875 0.015625 0  0.890625 0.015625 0  0.90625 0.015625 0  0.921875 0.015625 0  0.9375 0.015625 0  0.953125 0.015625 0  0.96875 0.015625 0  0.984375 0.015625 0  1 0.015625 0  0 0.03125 0  0.015625 0.03125 0  0.03125 0.03125 0  0.046875 0.03125 0  0.0625 0.03125 0  0.078125 0.03125 0  0.09375 0.03125 0  0.109375 0.03125 0  0.125 0.03125 0  0.140625 0.03125 0  0.15625 0.03125 0  0.171875 0.03125 0  0.1875 0.03125 0  0.203125 0.03125 0  0.21875 0.03125 0  0.234375 0.03125 0  0.25 0.03125 0  0.265625 0.03125 0  0.28125 0.03125 0  0.296875 0.03125 0  0.3125 0.03125 0  0.328125 0.03125 0  0.34375 0.03125 0  0.359375 0.03125 0  0.375 0.03125 0  0.390625 0.03125 0  0.40625 0.03125 0  0.421875 0.03125 0  0.4375 0.03125 0  0.453125 0.03125 0  0.46875 0.03125 0  0.484375 0.03125 0  0.5 0.03125 0  0.515625 0.03125 0  0.53125 0.03125 0  0.546875 0.03125 0  0.5625 0.03125 0  0.578125 0.03125 0  0.59375 0.03125 0  0.609375 0.03125 0  0.625 0.03125 0  0.640625 0.03125 0  0.65625 0.03125 0  0.671875 0.03125 0  0.6875 0.03125 0  0.703125 0.03125 0  0.71875 0.03125 0  0.734375 0.03125 0  0.75 0.03125 0  0.765625 0.03125 0  0.78125 0.03125 0  0.796875 0.03125 0  0.8125 0.03125 0  0.828125 0.03125 0  0.84375 0.03125 0  0.859375 0.03125 0  0.875 0.03125 0  0.890625 0.03125 0  0.90625 0.03125 0  0.921875 0.03125 0  0.9375 0.03125 0  0.953125 0.03125 0  0.96875 0.03125 0  0.984375 0.03125 0  1 0.03125 0  0 0.046875 0  0.015625 0.046875 0  0.03125 0.046875 0  0.046875 0.046875 0  0.0625 0.046875 0  0.078125 0.046875 0  0.09375 0.046875 0  0.109375 0.046875 0  0.125 0.046875 0  0.140625 0.046875 0  0.15625 0.046875 0  0.171875 0.046875 0  0.1875 0.046875 0  0.203125 0.046875 0  0.21875 0.046875 0  0.234375 0.046875 0  0.25 0.046875 0  0.265625 0.046875 0  0.28125 0.046875 0  0.296875 0.046875 0  0.3125 0.046875 0  0.328125 0.046875 0  0.34375 0.046875 0  0.359375 0.046875 0  0.375 0.046875 0  0.390625 0.046875 0  0.40625 0.046875 0  0.421875 0.046875 0  0.4375 0.046875 0  0.453125 0.046875 0  0.46875 0.046875 0  0.484375 0.046875 0  0.5 0.046875 0  0.515625 0.046875 0  0.53125 0.046875 0  0.546875 0.046875 0  0.5625 0.046875 0  0.578125 0.046875 0  0.59375 0.046875 0  0.609375 0.046875 0  0.625 0.046875 0  0.640625 0.046875 0  0.65625 0.046875 0  0.671875 0.046875 0  0.6875 0.046875 0  0.703125 0.046875 0  0.71875 0.046875 0  0.734375 0.046875 0  0.75 0.046875 0  0.765625 0.046875 0  0.78125 0.046875 0  0.796875 0.046875 0  0.8125 0.046875 0  0.828125 0.046875 0  0.84375 0.046875 0  0.859375 0.046875 0  0.875 0.046875 0  0.890625 0.046875 0  0.90625 0.046875 0  0.921875 0.046875 0  0.9375 0.046875 0  0.953125 0.046875 0  0.96875 0.046875 0  0.984375 0.046875 0  1 0.046875 0  0 0.0625 0  0.015625 0.0625 0  0.03125 0.0625 0  0.046875 0.0625 0  0.0625 0.0625 0  0.078125 0.0625 0  0.09375 0.0625 0  0.109375 0.0625 0  0.125 0.0625 0  0.140625 0.0625 0  0.15625 0.0625 0  0.171875 0.0625 0  0.1875 0.0625 0  0.203125 0.0625 0  0.21875 0.0625 0  0.234375 0.0625 0  0.25 0.0625 0  0.265625 0.0625 0  0.28125 0.0625 0  0.296875 0.0625 0  0.3125 0.0625 0  0.328125 0.0625 0  0.34375 0.0625 0  0.359375 0.0625 0  0.375 0.0625 0  0.390625 0.0625 0  0.40625 0.0625 0  0.421875 0.0625 0  0.4375 0.0625 0  0.453125 0.0625 0  0.46875 0.0625 0  0.484375 0.0625 0  0.5 0.0625 0  0.515625 0.0625 0  0.53125 0.0625 0  0.546875 0.0625 0  0.5625 0.0625 0  0.578125 0.0625 0  0.59375 0.0625 0  0.609375 0.0625 0  0.625 0.0625 0  0.640625 0.0625 0  0.65625 0.0625 0  0.671875 0.0625 0  0.6875 0.0625 0  0.703125 0.0625 0  0.71875 0.0625 0  0.734375 0.0625 0  0.75 0.0625 0  0.765625 0.0625 0  0.78125 0.0625 0  0.796875 0.0625 0  0.8125 0.0625 0  0.828125 0.0625 0  0.84375 0.0625 0  0.859375 0.0625 0  0.875 0.0625 0  0.890625 0.0625 0  0.90625 0.0625 0  0.921875 0.0625 0  0.9375 0.0625 0  0.953125 0.0625 0  0.96875 0.0625 0  0.984375 0.0625 0  1 0.0625 0  0 0.078125 0  0.015625 0.078125 0  0.03125 0.078125 0  0.046875 0.078125 0  0.0625 0.078125 0  0.078125 0.078125 0  0.09375 0.078125 0  0.109375 0.078125 0  0.125 0.078125 0  0.140625 0.078125 0  0.15625 0.078125 0  0.171875 0.078125 0  0.1875 0.078125 0  0.203125 0.078125 0  0.21875 0.078125 0  0.234375 0.078125 0  0.25 0.078125 0  0.265625 0.078125 0  0.28125 0.078125 0  0.296875 0.078125 0  0.3125 0.078125 0  0.328125 0.078125 0  0.34375 0.078125 0  0.359375 0.078125 0  0.375 0.078125 0  0.390625 0.078125 0  0.40625 0.078125 0  0.421875 0.078125 0  0.4375 0.078125 0  0.453125 0.078125 0  0.46875 0.078125 0  0.484375 0.078125 0  0.5 0.078125 0  0.515625 0.078125 0  0.53125 0.078125 0  0.546875 0.078125 0  0.5625 0.078125 0  0.578125 0.078125 0  0.59375 0.078125 0  0.609375 0.078125 0  0.625 0.078125 0  0.640625 0.078125 0  0.65625 0.078125 0  0.671875 0.078125 0  0.6875 0.078125 0  0.703125 0.078125 0  0.71875 0.078125 0  0.734375 0.078125 0  0.75 0.078125 0  0.765625 0.078125 0  0.78125 0.078125 0  0.796875 0.078125 0  0.8125 0.078125 0  0.828125 0.078125 0  0.84375 0.078125 0  0.859375 0.078125 0  0.875 0.078125 0  0.890625 0.078125 0  0.90625 0.078125 0  0.921875 0.078125 0  0.9375 0.078125 0  0.953125 0.078125 0  0.96875 0.078125 0  0.984375 0.078125 0  1 0.078125 0  0 0.09375 0  0.015625 0.09375 0  0.03125 0.09375 0  0.046875 0.09375 0  0.0625 0.09375 0  0.078125 0.09375 0  0.09375 0.09375 0  0.109375 0.09375 0  0.125 0.09375 0  0.140625 0.09375 0  0.15625 0.09375 0  0.171875 0.09375 0  0.1875 0.09375 0  0.203125 0.09375 0  0.21875 0.09375 0  0.234375 0.09375 0  0.25 0.09375 0  0.265625 0.09375 0  0.28125 0.09375 0  0.296875 0.09375 0  0.3125 0.09375 0  0.328125 0.09375 0  0.34375 0.09375 0  0.359375 0.09375 0  0.375 0.09375 0  0.390625 0.09375 0  0.40625 0.09375 0  0.421875 0.09375 0  0.4375 0.09375 0  0.453125 0.09375 0  0.46875 0.09375 0  0.484375 0.09375 0  0.5 0.09375 0  0.515625 0.09375 0  0.53125 0.09375 0  0.546875 0.09375 0  0.5625 0.09375 0  0.578125 0.09375 0  0.59375 0.09375 0  0.609375 0.09375 0  0.625 0.09375 0  0.640625 0.09375 0  0.65625 0.09375 0  0.671875 0.09375 0  0.6875 0.09375 0  0.703125 0.09375 0  0.71875 0.09375 0  0.734375 0.09375 0  0.75 0.09375 0  0.765625 0.09375 0  0.78125 0.09375 0  0.796875 0.09375 0  0.8125 0.09375 0  0.828125 0.09375 0  0.84375 0.09375 0  0.859375 0.09375 0  0.875 0.09375 0  0.890625 0.09375 0  0.90625 0.09375 0  0.921875 0.09375 0  0.9375 0.09375 0  0.953125 0.09375 0  0.96875 0.09375 0  0.984375 0.09375 0  1 0.09375 0  0 0.109375 0  0.015625 0.109375 0  0.03125 0.109375 0  0.046875 0.109375 0  0.0625 0.109375 0  0.078125 0.109375 0  0.09375 0.109375 0  0.109375 0.109375 0  0.125 0.109375 0  0.140625 0.109375 0  0.15625 0.109375 0  0.171875 0.109375 0  0.1875 0.109375 0  0.203125 0.109375 0  0.21875 0.109375 0  0.234375 0.109375 0  0.25 0.109375 0  0.265625 0.109375 0  0.28125 0.109375 0  0.296875 0.109375 0  0.3125 0.109375 0  0.328125 0.109375 0  0.34375 0.109375 0  0.359375 0.109375 0  0.375 0.109375 0  0.390625 0.109375 0  0.40625 0.109375 0  0.421875 0.109375 0  0.4375 0.109375 0  0.453125 0.109375 0  0.46875 0.109375 0  0.484375 0.109375 0  0.5 0.109375 0  0.515625 0.109375 0  0.53125 0.109375 0  0.546875 0.109375 0  0.5625 0.109375 0  0.578125 0.109375 0  0.59375 0.109375 0  0.609375 0.109375 0  0.625 0.109375 0  0.640625 0.109375 0  0.65625 0.109375 0  0.671875 0.109375 0  0.6875 0.109375 0  0.703125 0.109375 0  0.71875 0.109375 0  0.734375 0.109375 0  0.75 0.109375 0  0.765625 0.109375 0  0.78125 0.109375 0  0.796875 0.109375 0  0.8125 0.109375 0  0.828125 0.109375 0  0.84375 0.109375 0  0.859375 0.109375 0  0.875 0.109375 0  0.890625 0.109375 0  0.90625 0.109375 0  0.921875 0.109375 0  0.9375 0.109375 0  0.953125 0.109375 0  0.96875 0.109375 0  0.984375 0.109375 0  1 0.109375 0  0 0.125 0  0.015625 0.125 0  0.03125 0.125 0  0.046875 0.125 0  0.0625 0.125 0  0.078125 0.125 0  0.09375 0.125 0  0.109375 0.125 0  0.125 0.12
[...]
<PointData  Scalars="f_4824"> 
<DataArray  type="Float64"  Name="f_4824"  format="ascii">-2.4566849531226564e-16  -2.4063068590730221e-16  -2.4052570894562387e-16  -2.3314412239885055e-16  -2.3672656405012852e-16  -2.2623246904739694e-16  -2.3025972254628717e-16  -2.3037155159486672e-16  -1.9543861161203261e-16  -3.0256974965841253e-16  -1.2111395039916950e-17  -6.8506531806794136e-16  7.9142604560608178e-16  -2.2685961454449737e-15  3.8517974068539474e-15  -7.9827712539091425e-15  1.4289338115735356e-14  -2.6552859888907584e-14  4.6663168907960421e-14  -8.1605253750840253e-14  1.3863707161450205e-13  -2.3124095021253773e-13  3.7847483312785005e-13  -6.0460741688420690e-13  9.5191974994094373e-13  -1.4585653685331509e-12  2.2052398685644766e-12  -3.2417925697369805e-12  4.6975742528576879e-12  -6.6201877189357941e-12  9.1768125385337639e-12  -1.2377640474323744e-11  1.6382472925057047e-11  -2.1102099346160369e-11  2.6615824061978376e-11  -3.2662984502357776e-11  3.9180892343347549e-11  -4.5706128465587549e-11  5.2047872024915614e-11  -5.7608260801614533e-11  6.2197090770740492e-11  -6.5251709526530476e-11  6.6777710654366799e-11  -6.6419349414515799e-11  6.4505167996121048e-11  -6.0920704163641167e-11  5.6273067232254787e-11  -5.0552052020606961e-11  4.4481443363946794e-11  -3.7973665499691984e-11  3.1752115410299859e-11  -2.5563582264837299e-11  2.0130213091740210e-11  -1.5018273462676899e-11  1.0982173885332126e-11  -7.3626440041970293e-12  4.9569239001705483e-12  -2.8072928319381546e-12  1.8139942525035520e-12  -6.9244580186822098e-13  6.1150732327600794e-13  5.7904943824089361e-14  3.3534681299306483e-13  3.0577779863139876e-13  3.8197279036590908e-13  -2.4261325227372276e-16  -2.3959419010257262e-16  -2.3831678667609230e-16  -2.3371124528074123e-16  -2.3442906951760102e-16  -2.2691274368963570e-16  -2.3131997965350318e-16  -2.2075742414049397e-16  -2.2423407328094661e-16  -2.2836101140797644e-16  -1.8221275891556376e-16  -3.1774744163026015e-16  3.6842217221945217e-17  -7.7132677672702048e-16  9.8442265790705543e-16  -2.6028507981202024e-15  4.5679250203754419e-15  -9.0433639671758326e-15  1.6765474237898492e-14  -2.9392869350835521e-14  5.4485862282179557e-14  -8.8290276512379770e-14  1.6030248589176364e-13  -2.4622142798362194e-13  4.2931659252576485e-13  -6.3797785842249006e-13  1.0517656849087798e-12  -1.5272859641281014e-12  2.3680290938950317e-12  -3.3555941114588690e-12  4.9054256258583428e-12  -6.7361491973847127e-12  9.3233964383657330e-12  -1.2317584941829592e-11  1.6180277652796710e-11  -2.0451766640964556e-11  2.5505483926485459e-11  -3.0717858583986439e-11  3.6337859315762446e-11  -4.1571740726938492e-11  4.6593684822984168e-11  -5.0527292516190118e-11  5.3618775166103310e-11  -5.5063568130547667e-11  5.5349798074290417e-11  -5.3854763783726350e-11  5.1377913732181024e-11  -4.7439259620349140e-11  4.3070463188644893e-11  -3.7770280549038840e-11  3.2674180664950304e-11  -2.7107542458988172e-11  2.2267102170215299e-11  -1.7241068429633335e-11  1.3337664270592482e-11  -9.3636410064912842e-12  6.7979977787287552e-12  -4.0675143031988051e-12  2.8919870298035828e-12  -1.2014581365178478e-12  1.1243707521293012e-12  1.2867529779304174e-14  6.1226900282376813e-13  4.6576150648976948e-13  6.3264375217879370e-13  -2.3902434740515786e-16  -2.3615966534408558e-16  -2.3561524753580303e-16  -2.3090560543828105e-16  -2.3316536039543018e-16  -2.2377285257854551e-16  -2.3270242180963175e-16  -2.1449874268427859e-16  -2.3238323640370092e-16  -2.1177776011285717e-16  -2.0750931533862741e-16  -2.7527461572738571e-16  -1.9484663578191142e-17  -6.7853626621377862e-16  9.5651205525354962e-16  -2.4050508630193866e-15  5.2773022733349169e-15  -8.2918515581486268e-15  2.2476999005100894e-14  -2.5428194190453513e-14  8.2791821346643014e-14  -7.3577694527230035e-14  2.6266817608837762e-13  -2.1892911328508669e-13  7.1785350236375404e-13  -6.6090196960457286e-13  1.7354796595171534e-12  -1.8602921070018940e-12  3.8511180307872366e-12  -4.6466068647494195e-12  8.0165547487651261e-12  -1.0253433159658209e-11  1.5642974007239680e-11  -2.0194964014685331e-11  2.8286074154752056e-11  -3.5778868831434328e-11  4.6852700120453278e-11  -5.7140863446116201e-11  7.0473940290803580e-11  -8.2140601622319257e-11  9.5649562828217037e-11  -1.0598772867762899e-10  1.1661463791724978e-10  -1.2247504128305797e-10  1.2743226772370364e-10  -1.2669702378006333e-10  1.2491081496341382e-10  -1.1760476751918423e-10  1.1024562901720685e-10  -9.8352944702729811e-11  8.7999263529083074e-11  -7.4193714843076907e-11  6.3471836391440104e-11  -4.9975774063323165e-11  4.0849426939566409e-11  -2.9145482637769520e-11  2.2918379328936586e-11  -1.3797197401062620e-11  1.1077020983989672e-11  -4.4570629448769062e-12  4.9972192016192872e-12  9.7033448702535883e-14  2.9059815273215532e-12  2.0072959154681940e-12  2.8217654139422643e-12  -2.3462052720769524e-16  -2.3207518235189077e-16  -2.3165764625147555e-16  -2.2735437061835255e-16  -2.2998311890372510e-16  -2.2045047709156682e-16  -2.3143720482108021e-16  -2.0889251453575888e-16  -2.3816281464290914e-16  -1.9278590523067631e-16  -2.3968069570842446e-16  -1.9567210790761256e-16  -1.1791468977320448e-16  -2.8038445286658772e-16  1.0409071774953020e-15  1.8830506096689121e-16  9.4467699412604541e-15  9.1438017088738061e-15  5.7809174392775579e-14  6.8740796674587879e-14  2.6448718424274093e-13  2.9782292102884089e-13  8.9891512525668699e-13  8.3041082958678946e-13  2.3077359505987690e-12  1.4773332507211856e-12  4.7147041737019505e-12  1.3149102513449329e-12  8.3836964237835435e-12  -1.3054176756986515e-12  1.4369374296059040e-11  -8.4965683313316995e-12  2.5076291624608262e-11  -2.2847472067763500e-11  4.3886154813965277e-11  -4.7254187563206469e-11  7.3884135626320723e-11  -8.3651752531372599e-11  1.1584652602329968e-10  -1.3069362622347691e-10  1.6597193664513256e-10  -1.8173963045159041e-10  2.1490618145644958e-10  -2.2524425147455579e-10  2.4997147053686695e-10  -2.4880082190275745e-10  2.6066256260640613e-10  -2.4523443725780830e-10  2.4418881171459443e-10  -2.1638979342051602e-10  2.0662413836173211e-10  -1.7136891849054466e-10  1.5873262884847741e-10  -1.2106796652987944e-10  1.1062431900332118e-10  -7.4107629637826664e-11  6.9506318555672866e-11  -3.6156313005464755e-11  3.9829285132353377e-11  -1.0033537894206409e-11  2.2926690645244713e-11  4.9987985926377340e-12  1.6599747639752810e-11  1.2769467208192537e-11  1.6782144794531535e-11  -2.2941659982350096e-16  -2.2724889629051851e-16  -2.2695873237464377e-16  -2.2308924430719748e-16  -2.2581187765565032e-16  -2.1654609457977269e-16  -2.2848996007210282e-16  -2.0370681328317499e-16  -2.3970652367731627e-16  -1.7569309360667705e-16  -2.4760392862790440e-16  -6.4581227670165784e-17  1.1372632433800023e-16  1.2992535037689233e-15  5.7047558793376132e-15  1.7826988551830141e-14  5.9834009417226576e-14  1.5443374834041255e-13  4.1644253584130056e-13  9.0851567393362432e-13  2.0145590414570177e-12  3.6944877234573734e-12  6.8720568389645757e-12  1.0561853249634506e-11  1.6885520813990308e-11  2.1676120391292902e-11  3.0997467534940262e-11  3.2753872670337212e-11  4.5214938327000619e-11  3.7131796144090263e-11  5.7701449855363090e-11  3.0161566990656597e-11  7.2615417599566152e-11  9.1987164873500418e-12  9.8284902890942584e-11  -2.9466391036129970e-11  1.4332659232955742e-10  -9.0667773838892219e-11  2.1325151055200750e-10  -1.7615707790599880e-10  3.0642274342638152e-10  -2.7900337215258719e-10  4.1017223388577957e-10  -3.8070993977367063e-10  5.0118360107581128e-10  -4.5511584470695635e-10  5.5342353377181005e-10  -4.7956417506401327e-10  5.5095067606638745e-10  -4.4692631448512143e-10  4.9657802879092888e-10  -3.6882910773197754e-10  4.0890008434512149e-10  -2.6729505360546923e-10  3.1087937685654973e-10  -1.6322883986160732e-10  2.2090883575501122e-10  -7.1314641669857446e-11  1.5126415264790332e-10  -3.4284413756145017e-13  1.0853434142896717e-10  4.7449321950647701e-11  9.2216295930723068e-11  7.7425404186776821e-11  9.5600585797635782e-11  -2.2358942376413358e-16  -2.2181477238454989e-16  -2.2162590831406273e-16  -2.1830360229301247e-16  -2.2088413115342962e-16  -2.1235164076316565e-16  -2.2411049255168500e-16  -1.9866681846886899e-16  -2.3435697488123598e-16  -1.4138498810515833e-16  -1.3109535511633590e-16  6.2066583679172463e-16  2.9035491716364428e-15  1.3127783740811627e-14  4.8279247163598127e-14  1.6218992635929114e-13  4.9611384660266905e-13  1.3689270722677055e-12  3.4728472317199383e-12  7.9597761257984717e-12  1.6816979269415037e-11  3.2201123979608568e-11  5.7095722775513213e-11  9.2036202555246994e-11  1.3862523783079834e-10  1.9026669359923037e-10  2.4825909978764744e-10  2.9474082709704535e-10  3.4407563649335373e-10  3.5957440414237393e-10  3.9592252784042468e-10  3.6636451326974233e-10  4.1390955087146852e-10  3.2610996731222316e-10  4.3108156333814076e-10  2.5014073709477358e-10  4.7753425654533079e-10  1.3606976878460968e-10  5.7268810848475047e-10  -2.3820635004419319e-11  7.2341811990912415e-10  -2.2742707013413185e-10  9.1754143305815360e-10  -4.5095060760468792e-10  1.1185571974699650e-09  -6.4761714410884202e-10  1.2726778435213208e-09  -7.6286209116226134e-10  1.3314527400040153e-09  -7.6107696736758163e-10  1.2777686006499445e-09  -6.4520574949382862e-10  1.1344248046236668e-09  -4.5206497549734397e-10  9.4762707068241030e-10  -2.2850599064193061e-10  7.6234753349179450e-10  -1.1684027943559285e-11  6.1090683690224014e-10  1.7467693541699840e-10  5.1387419605139823e-10  3.1915380138892776e-10  4.7917927455667200e-10  4.2569123949629653e-10  4.9989956337734277e-10  -2.1742469033639747e-16  -2.1602399303353151e-16  -2.1591144853623137e-16  -2.1316948174819368e-16  -2.1547447011763606e-16  -2.0791629242563518e-16  -2.1826395374470943e-16  -1.9017969320957967e-16  -1.9931633944034068e-16  5.0627792557556296e-17  8.6985697847937520e-16  5.5974917202986255e-15  2.4933368774513785e-14  1.0274161688761161e-13  3.7726620357253773e-13  1.2638293493018189e-12  3.8432495538562804e-12  1.0636748952029724e-11  2.6825630325338191e-11  6.1655581898862829e-11  1.2950171272743884e-10  2.4859247948778966e-10  4.3784982081424358e-10  7.0789635867471648e-10  1.0567697577720598e-09  1.4576144690526914e-09  1.8753735474138800e-09  2.2501888729319034e-09  2.5599075173130132e-09  2.7458747598301664e-09  2.8651674288788132e-09  2.8359213370598655e-09  2.8425849033868433e-09  2.6573045448268469e-09  2.6944379178021669e-09  2.3675769664269062e-09  2.5765330779073096e-09  2.0267841431422078e-09  2.5639271297691977e-09  1.6283216567954173e-09  2.6871613851517702e-09  1.1577094672608783e-09  2.9434740757722099e-09  6.3224639317356415e-10  3.2846732499074168e-09  1.1997485169012070e-10  3.6142321280930315e-09  -2.7116026729064630e-10  3.8164525397814950e-09  -4.3873455361417952e-10  3.8121279012066140e-09  -3.4174938082310216e-10  3.6026259093524720e-09  -2.2319793151807482e-11  3.2636522564775942e-09  4.2679752110464964e-10  2.8958907533586083e-09  9.1515568117930701e-10  2.5818876725161091e-09  1.3806091779071432e-09  2.3775950731612671e-09  1.7876264130429639e-09  2.3159086173761097e-09  2.1288622411037043e-09  2.4009258712466608e-09  -2.1126340408571402e-16  -2.1019555785687723e-16  -2.1013626104609142e-16  -2.0795028911981238e-16  -2.0986032194963745e-16  -2.0299380549556454e-16  -2.0807848720602536e-16  -1.5412874106622702e-16  2.3033331856664243e-17  1.3463959642046283e-15  7.8721668061757539e-15  4.0000064669328341e-14  1.7819940323456740e-13  7.2320759725722856e-13  2.6572987462193473e-12  8.8803562258488333e-12  2.6973006699349515e-11  7.4563948967577697e-11  1.8773071343322561e-10  4.3096345105122614e-10  9.0334573949478386e-10  1.7315799129682640e-09  3.0420687319697738e-09  4.9095825534891644e-09  7.3043167766024557e-09  1.0053616593739977e-08  1.2872249925659139e-08  1.5410818836352573e-08  1.7398972410446229e-08  1.8642476854638521e-08  1.9196745774494188e-08  1.9077874302967889e-08  1.8639939049795721e-08  1.7778025294163204e-08  1.7090962744904499e-08  1.5953048961589190e-08  1.5516492717122226e-08  1.4150196686158166e-08  1.4284890378521787e-08  1.2447876090625791e-08  1.3491137027137710e-08  1.0784331586329807e-08  1.3142973757516630e-08  9.1209688787302858e-09  1.3176089867245902e-08  7.5130294334174783e-09  1.3427750170485571e-08  6.1262326805959073e-09  1.3653992659117877e-08  5.1815423340481910e-09  1.3619591400029507e-08  4.8391861703658990e-09  1.3217169019576721e-08  5.0997890138148236e-09  1.2520285722868941e-08  5.8095728212546704e-09  1.1720418721351922e-08  6.7624762026912057e-09  1.1013914548195732e-08  7.7949889693896962e-09  1.0543870487249034e-08  8.8065681821220862e-09  1.0404493990515801e-08  9.7513837719154653e-09  1.0640410161021251e-08  -2.0545654271363095e-16  -2.0466975152178115e-16  -2.0464299031943787e-16  -2.0292696793503895e-16  -2.0411623645110768e-16  -1.9529554771825716e-16  -1.7388899824883885e-16  5.5522829154442832e-17  1.3919561504328373e-15  9.4709352550521414e-15  5.1825332008282673e-14  2.5564624511393927e-13  1.1384395623907589e-12  4.6049473228201442e-12  1.6908067329606686e-11  5.6421836739516312e-11  1.7117448700625558e-10  4.7254911287210028e-10  1.1880357774263551e-09  2.7231155235010658e-09  5.6980232213665384e-09  1.0902028972785051e-08  1.9111459820364461e-08  3.0772507450798623e-08  4.5654825906814529e-08  6.2652591502481978e-08  7.9919680975058755e-08  9.5314250994653541e-08  1.0705967677050001e-07  1.1416343712619983e-07  1.1670700597189340e-07  1.1538463260638153e-07  1.1154422834068519e-07  1.0602725128068408e-07  1.0023375343106531e-07  9.3915361026924216e-08  8.8682832311275913e-08  8.2647387701184356e-08  7.8895843942253857e-08  7.2899208196393453e-08  7.1149262598736536e-08  6.4422362643592305e-08  6.5325345187962942e-08  5.6883040834958559e-08  6.1212240990528471e-08  5.0112489305650263e-08  5.8459967133245140e-08  4.4199257481573948e-08  5.6537387036073062e-08  3.9460606967787968e-08  5.4826522336889149e-08  3.6256807574121135e-08  5.2854814339100726e-08  3.4731230824077596e-08  5.0509157208953982e-08  3.4677795390344022e-08  4.8037903069059644e-08  3.5658114222881577e-08  4.5837938992823017e-08  3.7240601943924779e-08  4.4245469692082329e-08  3.9130241782345492e-08  4.3487631678052717e-08  4.1159379871258728e-08  4.3703715283616896e-08  -2.0033240370893380e-16  -1.9977336485882237e-16  -1.9975169544290436e-16  -1.9825687996891601e-16  -1.9704181798178246e-16  -1.7135869235955047e-16  -6.4118167521568990e-18  1.2338476082191352e-15  9.1292952664183525e-15  5.5528485143039559e-14  3.0071794453105028e-13  1.4756110849591890e-12  6.5650005326644155e-12  2.6516606325094761e-11  9.7258686728395123e-11  3.2414514211105020e-10  9.8218022961832667e-10  2.7077430568779110e-09  6.7976524194498947e-09  1.5556320350593951e-08  3.2494521034471326e-08  6.2052776766383990e-08  1.0854708283246729e-07  1.7436133433101646e-07  2.5798539987001627e-07  3.5295488288477469e-07  4.4864028556031563e-07  5.3292804854860684e-07  5.9580204768471029e-07  6.3204616064629651e-07  6.4214856311735349e-07  6.3080582176055120e-07  6.0500161398162485e-07  5.7101997056396294e-07  5.3447182685041515e-07  4.9767967919653398e-07  4.6380624045521529e-07  4.3117026993629724e-07  4.0358576180340430e-07  3.7530465998696294e-07  3.5451188286621180e-07  3.2876714855152012e-07  3.1521906811280435e-07  2.8961757422732031e-07  2.8429345517009168e-07  2.5631095390557453e-07  2.6035795714802444e-07  2.2795074742465212e-07  2.4186136829967910e-07  2.0434614775945059e-07  2.2704741640768181e-07  1.8578395154441105e-07  2.1426623387917231e-07  1.7250445681533444e-07  2.0248311423138740e-07  1.6419135947712757e-07  1.9155840101402131e-07  1.5990200025485596e-07  1.8200323846943364e-07  1.5848174669947630e-07  1.7445143603579606e-07  1.5900502643280840e-07  1.6935370861778040e-07  1.6087697483528288e-07  1.6698685565533268e-07  -1.9619879925417090e-16  -1.9581439510761455e-16  -1.9571036876091600e-16  -1.9347346192420023e-16  -1.8136178821736716e-16  -6.4329519048832063e-17  8.3011769065409574e-16  7.2617000286633166e-15  4.8698718231152932e-14  2.9100836086560754e-13  1.5718473204212381e-12  7.6998018093965393e-12  3.4220897858691218e-11  1.3806183786121194e-10  5.0581868207530530e-10  1.6837570746124844e-09  5.0954020069645309e-09  1.4028134776341863e-08  3.5165086677037199e-08  8.0345912345996331e-08  1.6753538787913105e-07  3.1931575937449650e-07  5.5737753548651347e-07  8.9319714420009702e-07  1.3180471988183844e-06  1.7978169191858486e-06  2.2773833755202971e-06  2.6947291237754702e-06  2.9992533030839536e-06  3.1657031073456504e-06  3.1978879088227960e-06  3.1216122162691877e-06  2.9727790620274284e-06  2.7852652997694713e-06  2.5856042140791947e-06  2.3891508300535160e-06  2.2058378109943466e-06  2.0361900822848033e-06  1.8848319844735887e-06  1.7441932456470933e-06  1.6233418667145992e-06  1.5054105861198874e-06  1.4120031196713663e-06  1.3092941586416284e-06  1.2419920435669968e-06  1.1469880567336826e-06  1.1060154247611757e-06  1.0118568538624704e-06  9.9763265852359561e-07  8.9955909936950775e-07  9.1066915618401976e-07  8.0777302126698721e-07  8.3927538585914364e-07  7.3528105075302071e-07  7.7871792403515098e-07  6.8064755516756516e-07  7.2627708755567768e-07  6.4136596455578289e-07  6.8130231932705074e-07  6.1416033311583756e-07  6.4423666330420428e-07  5.9599052336634082e-07  6.1555084529570680e-07  5.8464820828539255e-07  5.9542530096264387e-07  -1.9345482062730477e-16  -1.9316459943443579e-16  -1.9259320015774369e-16  -1.8553222585935142e-16  -1.2409103401242826e-16  4.1931721081488527e-16  4.6798219552994919e-15  3.5091257565260023e-14  2.3121283338244961e-13  1.3762241679038820e-12  7.4238126620261083e-12  3.6324775317224987e-11  1.6127258259590617e-10  6.4992749036568242e-10  2.3784341163768159e-09  7.9077090208197376e-09  2.3899697094369444e-08  6.5707712385871626e-08  1.6446921861802053e-07  3.7517947577573729e-07  7.8094725803631116e-07  1.4856023177170977e-06  2.5877017691851603e-06  4.1370998976872738e-06  6.0890296510535051e-06  8.2812492665200352e-06  1.0455890986136142e-05  1.2326243077087672e-05  1.3661783314832921e-05  1.4351906948216053e-05  1.4420917224520532e-05  1.3994311635731016e-05  1.3241225970174327e-05  1.2320955947712647e-05  1.1354034264615208e-05  1.0413760013399478e-05  9.5388686501884825e-06  8.7397088035982486e-06  8.0213873260890096e-06  7.3711884751440384e-06  6.7944960223403879e-06  6.2655310081449386e-06  5.8066971873920770e-06  5.3697538328047923e-06  5.0111613751762029e-06  4.6398320537576076e-06  4.3707077761038113e-06  4.0414043112094611e-06  3.8554514466387696e-06  3.5488054519310719e-06  3.4401294540191749e-06  3.1440942848275839e-06  3.1025250078948392e-06  2.8152712809415233e-06  2.8236889894082088e-06  2.5533014430318040e-06  2.5894970632681969e-06  2.3490676001631054e-06  2.3916441603688077e-06  2.1922504642937617e-06  2.2264166148256766e-06  2.0726668639118926e-06  2.0919943952218038e-06  1.9820891835196626e-06  1.9866663751714035e-06  -1.9300561384901627e-16  -1.9257367485686059e-16  -1.8994531830075174e-16  -1.6173472398477702e-16  1.0469226977561494e-16  2.4278267267901002e-15  2.0698419130035242e-14  1.5085959417907391e-13  9.8971614643175685e-13  5.8819248241414742e-12  3.1696074549490542e-11  1.5493042932953137e-10  6.8713752564606456e-10  2.7661548895941704e-09  1.0111321881196109e-08  3.3577117678163996e-08  1.0135086646883244e-07  2.7826236480715776e-07  6.9547404683404871e-07  1.5839522260014299e-06  3.2913403123437834e-06  6.2493483280131718e-06  1.0863026896102832e-05  1.7328025261882417e-05  2.5439936584262028e-05  3.4503332419183080e-05  4.3429725452823736e-05  5.1022331255057449e-05  5.6332760793906642e-05  5.8923473272997911e-05  5.8922774572744909e-05  5.6877387723216141e-05  5.3506912067596306e-05  4.9482433396269019e-05  4.5304053642471174e-05  4.1275865938952881e-05  3.7548272416603991e-05  3.4167490944948066e-05  3.1135106561397014e-05  2.8417394530553649e-