<?xml version="1.0"?>
<VTKFile type="UnstructuredGrid"  version="0.1"  >
<UnstructuredGrid>
<Piece  NumberOfPoints="4225" NumberOfCells="8192">
<Points>
<DataArray  type="Float64"  NumberOfComponents="3"  format="ascii">0 0 0  0.015625 0 0  0.03125 0 0  0.046875 0 0  0.0625 0 0  0.078125 0 0  0.09375 0 0  0.109375 0 0  0.125 0 0  0.140625 0 0  0.15625 0 0  0.171875 0 0  0.1875 0 0  0.203125 0 0  0.21875 0 0  0.234375 0 0  0.25 0 0  0.265625 0 0  0.28125 0 0  0.296875 0 0  0.3125 0 0  0.328125 0 0  0.34375 0 0  0.359375 0 0  0.375 0 0  0.390625 0 0  0.40625 0 0  0.421875 0 0  0.4375 0 0  0.453125 0 0  0.46875 0 0  0.484375 0 0  0.5 0 0  0.515625 0 0  0.53125 0 0  0.546875 0 0  0.5625 0 0  0.578125 0 0  0.59375 0 0  0.609375 0 0  0.625 0 0  0.640625 0 0  0.65625 0 0  0.671875 0 0  0.6875 0 0  0.703125 0 0  0.71875 0 0  0.734375 0 0  0.75 0 0  0.765625 0 0  0.78125 0 0  0.796875 0 0  0.8125 0 0  0.828125 0 0  0.84375 0 0  0.859375 0 0  0.875 0 0  0.890625 0 0  0.90625 0 0  0.921875 0 0  0.9375 0 0  0.953125 0 0  0.96875 0 0  0.984375 0 0  1 0 0  0 0.015625 0  0.015625 0.015625 0  0.03125 0.015625 0  0.046875 0.015625 0  0.0625 0.015625 0  0.078125 0.015625 0  0.09375 0.015625 0  0.109375 0.015625 0  0.125 0.015625 0  0.140625 0.015625 0  0.15625 0.015625 0  0.171875 0.015625 0  0.1875 0.015625 0  0.203125 0.015625 0  0.21875 0.015625 0  0.234375 0.015625 0  0.25 0.015625 0  0.265625 0.015625 0  0.28125 0.015625 0  0.296875 0.015625 0  0.3125 0.015625 0  0.328125 0.015625 0  0.34375 0.015625 0  0.359375 0.015625 0  0.375 0.015625 0  0.390625 0.015625 0  0.40625 0.015625 0  0.421875 0.015625 0  0.4375 0.015625 0  0.453125 0.015625 0  0.46875 0.015625 0  0.484375 0.015625 0  0.5 0.015625 0  0.515625 0.015625 0  0.53125 0.015625 0  0.546875 0.015625 0  0.5625 0.015625 0  0.578125 0.015625 0  0.59375 0.015625 0  0.609375 0.015625 0  0.625 0.015625 0  0.640625 0.015625 0  0.65625 0.015625 0  0.671875 0.015625 0  0.6875 0.015625 0  0.703125 0.015625 0  0.71875 0.015625 0  0.734375 0.015625 0  0.75 0.015625 0  0.765625 0.015625 0  0.78125 0.015625 0  0.796875 0.015625 0  0.8125 0.015625 0  0.828125 0.015625 0  0.84375 0.015625 0  0.859375 0.015625 0  0.875 0.015625 0  0.890625 0.015625 0  0.90625 0.015625 0  0.921875 0.015625 0  0.9375 0.015625 0  0.953125 0.015625 0  0.96875 0.015625 0  0.984375 0.015625 0  1 0.015625 0  0 0.03125 0  0.015625 0.03125 0  0.03125 0.03125 0  0.046875 0.03125 0  0.0625 0.03125 0  0.078125 0.03125 0  0.09375 0.03125 0  0.109375 0.03125 0  0.125 0.03125 0  0.140625 0.03125 0  0.15625 0.03125 0  0.171875 0.03125 0  0.1875 0.03125 0  0.203125 0.03125 0  0.21875 0.03125 0  0.234375 0.03125 0  0.25 0.03125 0  0.265625 0.03125 0  0.28125 0.03125 0  0.296875 0.03125 0  0.3125 0.03125 0  0.328125 0.03125 0  0.34375 0.03125 0  0.359375 0.03125 0  0.375 0.03125 0  0.390625 0.03125 0  0.40625 0.03125 0  0.421875 0.03125 0  0.4375 0.03125 0  0.453125 0.03125 0  0.46875 0.03125 0  0.484375 0.03125 0  0.5 0.03125 0  0.515625 0.03125 0  0.53125 0.03125 0  0.546875 0.03125 0  0.5625 0.03125 0  0.578125 0.03125 0  0.59375 0.03125 0  0.609375 0.03125 0  0.625 0.03125 0  0.640625 0.03125 0  0.65625 0.03125 0  0.671875 0.03125 0  0.6875 0.03125 0  0.703125 0.03125 0  0.71875 0.03125 0  0.734375 0.03125 0  0.75 0.03125 0  0.765625 0.03125 0  0.78125 0.03125 0  0.796875 0.03125 0  0.8125 0.03125 0  0.828125 0.03125 0  0.84375 0.03125 0  0.859375 0.03125 0  0.875 0.03125 0  0.890625 0.03125 0  0.90625 0.03125 0  0.921875 0.03125 0  0.9375 0.03125 0  0.953125 0.03125 0  0.96875 0.03125 0  0.984375 0.03125 0  1 0.03125 0  0 0.046875 0  0.015625 0.046875 0  0.03125 0.046875 0  0.046875 0.046875 0  0.0625 0.046875 0  0.078125 0.046875 0  0.09375 0.046875 0  0.109375 0.046875 0  0.125 0.046875 0  0.140625 0.046875 0  0.15625 0.046875 0  0.171875 0.046875 0  0.1875 0.046875 0  0.203125 0.046875 0  0.21875 0.046875 0  0.234375 0.046875 0  0.25 0.046875 0  0.265625 0.046875 0  0.28125 0.046875 0  0.296875 0.046875 0  0.3125 0.046875 0  0.328125 0.046875 0  0.34375 0.046875 0  0.359375 0.046875 0  0.375 0.046875 0  0.390625 0.046875 0  0.40625 0.046875 0  0.421875 0.046875 0  0.4375 0.046875 0  0.453125 0.046875 0  0.46875 0.046875 0  0.484375 0.046875 0  0.5 0.046875 0  0.515625 0.046875 0  0.53125 0.046875 0  0.546875 0.046875 0  0.5625 0.046875 0  0.578125 0.046875 0  0.59375 0.046875 0  0.609375 0.046875 0  0.625 0.046875 0  0.640625 0.046875 0  0.65625 0.046875 0  0.671875 0.046875 0  0.6875 0.046875 0  0.703125 0.046875 0  0.71875 0.046875 0  0.734375 0.046875 0  0.75 0.046875 0  0.765625 0.046875 0  0.78125 0.046875 0  0.796875 0.046875 0  0.8125 0.046875 0  0.828125 0.046875 0  0.84375 0.046875 0  0.859375 0.046875 0  0.875 0.046875 0  0.890625 0.046875 0  0.90625 0.046875 0  0.921875 0.046875 0  0.9375 0.046875 0  0.953125 0.046875 0  0.96875 0.046875 0  0.984375 0.046875 0  1 0.046875 0  0 0.0625 0  0.015625 0.0625 0  0.03125 0.0625 0  0.046875 0.0625 0  0.0625 0.0625 0  0.078125 0.0625 0  0.09375 0.0625 0  0.109375 0.0625 0  0.125 0.0625 0  0.140625 0.0625 0  0.15625 0.0625 0  0.171875 0.0625 0  0.1875 0.0625 0  0.203125 0.0625 0  0.21875 0.0625 0  0.234375 0.0625 0  0.25 0.0625 0  0.265625 0.0625 0  0.28125 0.0625 0  0.296875 0.0625 0  0.3125 0.0625 0  0.328125 0.0625 0  0.34375 0.0625 0  0.359375 0.0625 0  0.375 0.0625 0  0.390625 0.0625 0  0.40625 0.0625 0  0.421875 0.0625 0  0.4375 0.0625 0  0.453125 0.0625 0  0.46875 0.0625 0  0.484375 0.0625 0  0.5 0.0625 0  0.515625 0.0625 0  0.53125 0.0625 0  0.546875 0.0625 0  0.5625 0.0625 0  0.578125 0.0625 0  0.59375 0.0625 0  0.609375 0.0625 0  0.625 0.0625 0  0.640625 0.0625 0  0.65625 0.0625 0  0.671875 0.0625 0  0.6875 0.0625 0  0.703125 0.0625 0  0.71875 0.0625 0  0.734375 0.0625 0  0.75 0.0625 0  0.765625 0.0625 0  0.78125 0.0625 0  0.796875 0.0625 0  0.8125 0.0625 0  0.828125 0.0625 0  0.84375 0.0625 0  0.859375 0.0625 0  0.875 0.0625 0  0.890625 0.0625 0  0.90625 0.0625 0  0.921875 0.0625 0  0.9375 0.0625 0  0.953125 0.0625 0  0.96875 0.0625 0  0.984375 0.0625 0  1 0.0625 0  0 0.078125 0  0.015625 0.078125 0  0.03125 0.078125 0  0.046875 0.078125 0  0.0625 0.078125 0  0.078125 0.078125 0  0.09375 0.078125 0  0.109375 0.078125 0  0.125 0.078125 0  0.140625 0.078125 0  0.15625 0.078125 0  0.171875 0.078125 0  0.1875 0.078125 0  0.203125 0.078125 0  0.21875 0.078125 0  0.234375 0.078125 0  0.25 0.078125 0  0.265625 0.078125 0  0.28125 0.078125 0  0.296875 0.078125 0  0.3125 0.078125 0  0.328125 0.078125 0  0.34375 0.078125 0  0.359375 0.078125 0  0.375 0.078125 0  0.390625 0.078125 0  0.40625 0.078125 0  0.421875 0.078125 0  0.4375 0.078125 0  0.453125 0.078125 0  0.46875 0.078125 0  0.484375 0.078125 0  0.5 0.078125 0  0.515625 0.078125 0  0.53125 0.078125 0  0.546875 0.078125 0  0.5625 0.078125 0  0.578125 0.078125 0  0.59375 0.078125 0  0.609375 0.078125 0  0.625 0.078125 0  0.640625 0.078125 0  0.65625 0.078125 0  0.671875 0.078125 0  0.6875 0.078125 0  0.703125 0.078125 0  0.71875 0.078125 0  0.734375 0.078125 0  0.75 0.078125 0  0.765625 0.078125 0  0.78125 0.078125 0  0.796875 0.078125 0  0.8125 0.078125 0  0.828125 0.078125 0  0.84375 0.078125 0  0.859375 0.078125 0  0.875 0.078125 0  0.890625 0.078125 0  0.90625 0.078125 0  0.921875 0.078125 0  0.9375 0.078125 0  0.953125 0.078125 0  0.96875 0.078125 0  0.984375 0.078125 0  1 0.078125 0  0 0.09375 0  0.015625 0.09375 0  0.03125 0.09375 0  0.046875 0.09375 0  0.0625 0.09375 0  0.078125 0.09375 0  0.09375 0.09375 0  0.109375 0.09375 0  0.125 0.09375 0  0.140625 0.09375 0  0.15625 0.09375 0  0.171875 0.09375 0  0.1875 0.09375 0  0.203125 0.09375 0  0.21875 0.09375 0  0.234375 0.09375 0  0.25 0.09375 0  0.265625 0.09375 0  0.28125 0.09375 0  0.296875 0.09375 0  0.3125 0.09375 0  0.328125 0.09375 0  0.34375 0.09375 0  0.359375 0.09375 0  0.375 0.09375 0  0.390625 0.09375 0  0.40625 0.09375 0  0.421875 0.09375 0  0.4375 0.09375 0  0.453125 0.09375 0  0.46875 0.09375 0  0.484375 0.09375 0  0.5 0.09375 0  0.515625 0.09375 0  0.53125 0.09375 0  0.546875 0.09375 0  0.5625 0.09375 0  0.578125 0.09375 0  0.59375 0.09375 0  0.609375 0.09375 0  0.625 0.09375 0  0.640625 0.09375 0  0.65625 0.09375 0  0.671875 0.09375 0  0.6875 0.09375 0  0.703125 0.09375 0  0.71875 0.09375 0  0.734375 0.09375 0  0.75 0.09375 0  0.765625 0.09375 0  0.78125 0.09375 0  0.796875 0.09375 0  0.8125 0.09375 0  0.828125 0.09375 0  0.84375 0.09375 0  0.859375 0.09375 0  0.875 0.09375 0  0.890625 0.09375 0  0.90625 0.09375 0  0.921875 0.09375 0  0.9375 0.09375 0  0.953125 0.09375 0  0.96875 0.09375 0  0.984375 0.09375 0  1 0.09375 0  0 0.109375 0  0.015625 0.109375 0  0.03125 0.109375 0  0.046875 0.109375 0  0.0625 0.109375 0  0.078125 0.109375 0  0.09375 0.109375 0  0.109375 0.109375 0  0.125 0.109375 0  0.140625 0.109375 0  0.15625 0.109375 0  0.171875 0.109375 0  0.1875 0.109375 0  0.203125 0.109375 0  0.21875 0.109375 0  0.234375 0.109375 0  0.25 0.109375 0  0.265625 0.109375 0  0.28125 0.109375 0  0.296875 0.109375 0  0.3125 0.109375 0  0.328125 0.109375 0  0.34375 0.109375 0  0.359375 0.109375 0  0.375 0.109375 0  0.390625 0.109375 0  0.40625 0.109375 0  0.421875 0.109375 0  0.4375 0.109375 0  0.453125 0.109375 0  0.46875 0.109375 0  0.484375 0.109375 0  0.5 0.109375 0  0.515625 0.109375 0  0.53125 0.109375 0  0.546875 0.109375 0  0.5625 0.109375 0  0.578125 0.109375 0  0.59375 0.109375 0  0.609375 0.109375 0  0.625 0.109375 0  0.640625 0.109375 0  0.65625 0.109375 0  0.671875 0.109375 0  0.6875 0.109375 0  0.703125 0.109375 0  0.71875 0.109375 0  0.734375 0.109375 0  0.75 0.109375 0  0.765625 0.109375 0  0.78125 0.109375 0  0.796875 0.109375 0  0.8125 0.109375 0  0.828125 0.109375 0  0.84375 0.109375 0  0.859375 0.109375 0  0.875 0.109375 0  0.890625 0.109375 0  0.90625 0.109375 0  0.921875 0.109375 0  0.9375 0.109375 0  0.953125 0.109375 0  0.96875 0.109375 0  0.984375 0.109375 0  1 0.109375 0  0 0.125 0  0.015625 0.125 0  0.03125 0.125 0  0.046875 0.125 0  0.0625 0.125 0  0.078125 0.125 0  0.09375 0.125 0  0.109375 0.125 0  0.125 0.12
[...]
<PointData  Scalars="f_4824"> 
<DataArray  type="Float64"  Name="f_4824"  format="ascii">-3.8091811231419370e-16  -3.7898012504079025e-16  -3.7947686505724298e-16  -3.7592167236382195e-16  -3.7964611109983404e-16  -3.7144455844105514e-16  -3.8198908801384456e-16  -3.6624307821287753e-16  -3.8076077639788032e-16  -3.7905268809256384e-16  -3.2576051243323554e-16  -5.3041404817871653e-16  5.3817032746189273e-17  -1.3991423014672289e-15  1.9480541733874376e-15  -5.3492415620177207e-15  9.9204948359341426e-15  -2.0927088024515546e-14  3.9623072464362551e-14  -7.5918876244992549e-14  1.3952407164236878e-13  -2.5200428949660214e-13  4.4520030430170268e-13  -7.6609068789728450e-13  1.2977827504073399e-12  -2.1351670162164623e-12  3.4625354190860675e-12  -5.4507639212941100e-12  8.4465004879678372e-12  -1.2709807701114898e-11  1.8781535891348502e-11  -2.6954039934051992e-11  3.7890664283754370e-11  -5.1705404527756991e-11  6.8944387199764094e-11  -8.9145448787683520e-11  1.1239439218953336e-10  -1.3723491343907387e-10  1.6317738799383786e-10  -1.8776740635641970e-10  2.1056980388680992e-10  -2.2893084642650582e-10  2.4399188933122716e-10  -2.5409068000098582e-10  2.6340755353523021e-10  -2.7122560834282154e-10  2.8442167072317514e-10  -3.0033396800582459e-10  3.2606864192902746e-10  -3.5230335868523658e-10  3.8505683603455074e-10  -4.0580580470144037e-10  4.2408355809851478e-10  -4.1381515931336381e-10  3.9875154531137296e-10  -3.4562697392339051e-10  3.0357209963051886e-10  -2.2163763734131392e-10  1.8382865893187613e-10  -9.6260653711413604e-11  9.5825622592760237e-11  -7.0020783708180425e-12  6.3580099023534814e-11  5.1173729600664120e-11  8.1795873662913859e-11  -3.7979504555531443e-16  -3.7884720382835651e-16  -3.7860069350086609e-16  -3.7691901602194066e-16  -3.7791986230870908e-16  -3.7413579526461143e-16  -3.7878608595375069e-16  -3.6943670932932623e-16  -3.8213871151601353e-16  -3.6355978632740853e-16  -3.8168039168259357e-16  -3.7761245487606087e-16  -3.2004236338754212e-16  -5.4789566213304003e-16  1.1656310805824257e-16  -1.5215090466460111e-15  2.3289500751627027e-15  -5.8834191833256291e-15  1.1763830260400418e-14  -2.2773490906791436e-14  4.7108675618039885e-14  -8.1708653951643801e-14  1.6496546626863104e-13  -2.7023104561431606e-13  5.1787349640856817e-13  -8.2254627449343865e-13  1.4758352130646273e-12  -2.2915880145340751e-12  3.8441302620216423e-12  -5.8130810884401149e-12  9.1584595379568705e-12  -1.3378959443072755e-11  1.9881325277736000e-11  -2.7838514522922386e-11  3.9084159873224509e-11  -5.2118111776069619e-11  6.9089087862503590e-11  -8.7259458477535001e-11  1.0903197531688193e-10  -1.2985032219870963e-10  1.5276960050163700e-10  -1.7119825678262560e-10  1.9019572365935122e-10  -2.0140107470537810e-10  2.1415171478104234e-10  -2.1819419698559559e-10  2.2930692165220910e-10  -2.3294683579721080e-10  2.5226289288585828e-10  -2.6252090017676474e-10  2.9517433610002423e-10  -3.0733053200361859e-10  3.4439567212784263e-10  -3.3783846551052314e-10  3.6209419961951246e-10  -3.1372583381774851e-10  3.2080304591252884e-10  -2.2369640078877713e-10  2.3705356320500539e-10  -9.9410369535628975e-11  1.6189236469366884e-10  1.7493289592893958e-11  1.3885305210676412e-10  1.1680208160636752e-10  1.8085431945251791e-10  -3.7947570897167316e-16  -3.7865851887945838e-16  -3.7869869491249399e-16  -3.7707625495057534e-16  -3.7859258390224595e-16  -3.7426615700257855e-16  -3.8049864605688504e-16  -3.6832181026730745e-16  -3.8691474527897395e-16  -3.5721435297872270e-16  -3.9615032358649120e-16  -3.5374392606422655e-16  -3.5850612329643036e-16  -4.6791763449033940e-16  7.7872932042883022e-17  -1.2086914635213477e-15  2.8474996553731741e-15  -4.2738321433274814e-15  1.6876858759437978e-14  -1.4696041655155952e-14  7.5442473168598187e-14  -5.1414617192660148e-14  2.7670552905880349e-13  -1.9694514276136448e-13  8.6106183049977123e-13  -7.4896904401182886e-13  2.3737397267813635e-12  -2.5302303309929748e-12  6.0307412127976664e-12  -7.3725036623640726e-12  1.4359351861757122e-11  -1.8734897439924162e-11  3.1885641695426823e-11  -4.2142981556320571e-11  6.5174862259903517e-11  -8.4526754353137974e-11  1.2108837340015778e-10  -1.5118581878955046e-10  2.0234869342675400e-10  -2.4020690816778112e-10  3.0164511771116107e-10  -3.3751739623764817e-10  3.9959841204820212e-10  -4.1960322030465465e-10  4.7391590093617581e-10  -4.6908253058933248e-10  5.1974258628929110e-10  -4.9505125470415644e-10  5.6388312650535331e-10  -5.3345201778257885e-10  6.4676240179415339e-10  -6.0930084026444217e-10  7.7260517792674450e-10  -6.8700076000240294e-10  8.7928994584501900e-10  -6.7332554962725713e-10  8.8420171743438582e-10  -4.9570713011350890e-10  7.7781963134382771e-10  -1.7619911529710387e-10  6.5719725562311685e-10  1.9660910020809492e-10  6.5310210370884739e-10  5.7100290179900873e-10  8.4391965170311660e-10  -3.8069045754441513e-16  -3.8008895322447365e-16  -3.8013105634439434e-16  -3.7888244965657311e-16  -3.8018490171221071e-16  -3.7654082858673809e-16  -3.8227092490034500e-16  -3.7064800424197245e-16  -3.9014936930762433e-16  -3.5540172352204829e-16  -4.0864281254044900e-16  -3.1774129296107197e-16  -3.9163808027945298e-16  -1.5435395908332404e-16  3.5259458062929144e-16  1.4878408172413323e-15  7.8497383851832286e-15  1.5863549287314930e-14  5.7850088951406058e-14  9.9962064387871754e-14  2.9159100598425656e-13  4.2527761706745296e-13  1.0695636296056003e-12  1.2527855387686709e-12  2.9787763765310284e-12  2.5578269712089364e-12  6.7232103556534974e-12  3.3522879473294160e-12  1.3471148312347569e-11  1.1049015178430378e-12  2.6194253767801880e-11  -8.9038584390871684e-12  5.1449991817055917e-11  -3.4741443548701012e-11  1.0043488115797948e-10  -8.8424474766779614e-11  1.8786791999541869e-10  -1.8317462159953981e-10  3.2651471045226770e-10  -3.2495863783285449e-10  5.1641559291672369e-10  -5.0011639459829638e-10  7.3418845599168706e-10  -6.6909328975596754e-10  9.3633893527307011e-10  -7.8166981943918630e-10  1.0889692538813974e-09  -8.1653938952868110e-10  1.2111509568320600e-09  -8.1306396166657811e-10  1.3831459723080336e-09  -8.4017134346433888e-10  1.6774539875721385e-09  -8.9515819780595180e-10  2.0580298217323162e-09  -8.3134937704775492e-10  2.3798910483178592e-09  -4.3596757301923289e-10  2.5479294797839177e-09  3.8721872431383692e-10  2.6816607169865479e-09  1.5511431796769132e-09  3.0795399295534984e-09  2.9426139464759613e-09  4.0275807117812382e-09  -3.8442201252237986e-16  -3.8399352801658764e-16  -3.8406109267702638e-16  -3.8310098577977695e-16  -3.8421909436410738e-16  -3.8118665682329736e-16  -3.8627586588552737e-16  -3.7567802685496252e-16  -3.9400303641792180e-16  -3.5634047428734365e-16  -4.0122783535191125e-16  -2.2611983582000611e-16  -6.1486715525624124e-17  1.4497237662886411e-15  5.8001099115883323e-15  2.1014541990399395e-14  6.5819141718182288e-14  1.8276433260407267e-13  4.7798714818387876e-13  1.0982618042275273e-12  2.4118052787908113e-12  4.6462960400128279e-12  8.6775112224392424e-12  1.4135664274328618e-11  2.2960457753286720e-11  3.1910981011884007e-11  4.6830100304745856e-11  5.5818706780558759e-11  7.8923079622179896e-11  7.9546792311536105e-11  1.2012241892089770e-10  9.5774454495157225e-11  1.7989979169374628e-10  9.5229270512642996e-11  2.7846956770214155e-10  6.2023298117318148e-11  4.4574957501995589e-10  -2.6794963741934394e-11  7.1611745381010269e-10  -1.9081925313398756e-10  1.1134557903269045e-09  -4.2359025879667870e-10  1.6273589084170182e-09  -6.6773222162436269e-10  2.1991858827968449e-09  -8.1535083015927524e-10  2.7504665195972674e-09  -7.6139912538690081e-10  3.2648191394083183e-09  -4.8988017093553300e-10  3.8638478772692755e-09  -9.5465990196429281e-11  4.7625310549973914e-09  3.5485246464870528e-10  6.0761832516670384e-09  1.0428286502386331e-09  7.6726110204460820e-09  2.4327647992974644e-09  9.3315981134094743e-09  4.9776523838930093e-09  1.1142380932924727e-08  8.7998249073964123e-09  1.3687530593666110e-08  1.3786905739012525e-08  1.7772045961262196e-08  -3.9160654558688012e-16  -3.9132322693888677e-16  -3.9140266600773280e-16  -3.9071014964953702e-16  -3.9161300077227345e-16  -3.8922834740804117e-16  -3.9337741227224118e-16  -3.8384622535620462e-16  -3.9636508487763827e-16  -3.3967813193000650e-16  -2.6707840783913523e-16  4.7322556942427512e-16  3.0709690273850764e-15  1.4387818310593194e-14  5.3504255904036866e-14  1.8286137844880168e-13  5.6177989857260483e-13  1.5761512657810123e-12  4.0359301255883268e-12  9.4316217771869411e-12  2.0240766944432420e-11  3.9754625150037864e-11  7.2204546828405325e-11  1.2061627561756973e-10  1.8834277847116144e-10  2.7231076758601853e-10  3.7463077774135582e-10  4.8038189808535785e-10  6.0354909766490891e-10  7.0627202589831981e-10  8.4938013221167548e-10  9.2721201356728826e-10  1.1256003475143564e-09  1.1454254795548742e-09  1.4826488893649326e-09  1.3619636581510242e-09  1.9919456306950845e-09  1.5587200433938211e-09  2.7400253482812728e-09  1.7082755883999122e-09  3.8164685476224130e-09  1.8103938497134599e-09  5.2777751179892862e-09  1.9480614470790276e-09  7.1016621434293217e-09  2.3291935671109140e-09  9.1876017144551364e-09  3.2487996121970015e-09  1.1466910788477534e-08  4.9402003606404271e-09  1.4095553521063320e-08  7.4251548352466722e-09  1.7539056196249246e-08  1.0601787945313162e-08  2.2338758774523613e-08  1.4657730545994221e-08  2.8687309219675983e-08  2.0437148792408921e-08  3.6366454321816002e-08  2.9202974808655481e-08  4.5382316002833243e-08  4.1890838898109354e-08  5.6713762112217682e-08  5.8784350183539802e-08  7.2241970843875476e-08  -4.0313552408099597e-16  -4.0297250034763425e-16  -4.0306627910984249e-16  -4.0260005572440783e-16  -4.0330646093711768e-16  -4.0145168063215338e-16  -4.0412338582215338e-16  -3.9200740282615815e-16  -3.7338890200504701e-16  -1.5398607323423449e-16  8.1604938783912975e-16  5.8540352586710494e-15  2.7266010456060980e-14  1.1307809976607100e-13  4.1910673668270052e-13  1.4158010339323400e-12  4.3452592622523955e-12  1.2163466185975777e-11  3.1062017147406243e-11  7.2507793160896235e-11  1.5500523985985615e-10  3.0410043873392662e-10  5.4938027997595895e-10  9.1657620078328367e-10  1.4200370338942112e-09  2.0512367086498746e-09  2.7869073556131904e-09  3.5779513873479107e-09  4.3998677683829192e-09  5.1931411783375312e-09  6.0066730681546958e-09  6.7457086265624365e-09  7.6156386427120789e-09  8.3268269339709695e-09  9.4345091465114366e-09  1.0092477688698857e-08  1.1708652693014074e-08  1.2133528426715874e-08  1.4683982773971441e-08  1.4483430432183223e-08  1.8630332045602426e-08  1.7188706337525525e-08  2.3818291135154392e-08  2.0415133089495778e-08  3.0435686415823086e-08  2.4570785840177926e-08  3.8518192148188152e-08  3.0349571137579991e-08  4.8036016879290383e-08  3.8562338520084920e-08  5.9223256439573322e-08  4.9786216469872684e-08  7.2955564885539437e-08  6.4206355963856251e-08  9.0686838872106914e-08  8.2116136084669502e-08  1.1371159489271700e-07  1.0488502507862851e-07  1.4246537456219454e-07  1.3527507351260004e-07  1.7705808555911662e-07  1.7633235788638413e-07  2.1895082224716583e-07  2.2998675071570629e-07  2.7187928404462817e-07  -4.1985561190319974e-16  -4.1980200913263094e-16  -4.1992361890129126e-16  -4.1964902009000184e-16  -4.2015281832664455e-16  -4.1829833102579890e-16  -4.1596268906019487e-16  -3.7519251943573073e-16  -1.5639299439493562e-16  1.2184492999657552e-15  8.3775065107802376e-15  4.3201857401464519e-14  1.9471025716723319e-13  7.9469416765189795e-13  2.9413164326359080e-12  9.9056029314410973e-12  3.0360634412885416e-11  8.4814778321464947e-11  2.1617224999475413e-10  5.0349389350726849e-10  1.0735579384916166e-09  2.1003234525540826e-09  3.7810083099618058e-09  6.2848299790080396e-09  9.6888222271949601e-09  1.3925268745067273e-08  1.8784486419108293e-08  2.3956264089750136e-08  2.9152341541513813e-08  3.4135780816721660e-08  3.8884084276645890e-08  4.3354968536728326e-08  4.7858384378674689e-08  5.2241805560608782e-08  5.7197137719780706e-08  6.1921464650434553e-08  6.8034777214082586e-08  7.3146556964871857e-08  8.1210661039930033e-08  8.6325325238679950e-08  9.7502046449525696e-08  1.0178296768398250e-07  1.1776101956177906e-07  1.1999031300959143e-07  1.4283586979759211e-07  1.4182066512170486e-07  1.7338933161641804e-07  1.6878121011358153e-07  2.0985237752091291e-07  2.0296140738186840e-07  2.5281511490448377e-07  2.4649313186994213e-07  3.0385158084080993e-07  3.0086477787303217e-07  3.6606019867283307e-07  3.6709401377147574e-07  4.4331237044410269e-07  4.4735739102711852e-07  5.3846302203692738e-07  5.4673936021692487e-07  6.5279015390368091e-07  6.7257266090182026e-07  7.8844322321775272e-07  8.3134083873042330e-07  9.5173935724483039e-07  -4.4262658478958617e-16  -4.4269522527377250e-16  -4.4287599010827150e-16  -4.4275210478120056e-16  -4.4279873201967152e-16  -4.3805282602678231e-16  -4.0850790697638148e-16  -1.7859864301889198e-16  1.2801462067878718e-15  9.9190164020244118e-15  5.5747491656737381e-14  2.7670237656735219e-13  1.2397015791625778e-12  5.0425660268831899e-12  1.8636724083474685e-11  6.2652500179516294e-11  1.9172039161201339e-10  5.3457989517665877e-10  1.3597717213861537e-09  3.1598309733830221e-09  6.7200109172934781e-09  1.3108178895456515e-08  2.3516140509194785e-08  3.8933090971010259e-08  5.9736259008508512e-08  8.5384487413212409e-08  1.1441785521348452e-07  1.4481443573518230e-07  1.7461003141091181e-07  2.0241163419983476e-07  2.2776685544891357e-07  2.5089912493946320e-07  2.7276500216848814e-07  2.9400876167592205e-07  3.1599407405265911e-07  3.3841884247953851e-07  3.6332185964809960e-07  3.8833665648751991e-07  4.1806581207931785e-07  4.4577871396795654e-07  4.8245729377671610e-07  5.1205023121448433e-07  5.5875413225390364e-07  5.8853509648530594e-07  6.4943856182477048e-07  6.7720148419220156e-07  7.5693544191355651e-07  7.8115668878705067e-07  8.8327411319263370e-07  9.0497617491389591e-07  1.0302930845990171e-06  1.0542019800968347e-06  1.2008902875797268e-06  1.2339163890807051e-06  1.4007517137164836e-06  1.4477671507769217e-06  1.6385267691289464e-06  1.6996179602402536e-06  1.9230023695656982e-06  1.9976097989141560e-06  2.2597658248721175e-06  2.3560849445203732e-06  2.6527028758354260e-06  2.7913504469149206e-06  3.1108654154193336e-06  -4.7248461208298613e-16  -4.7272472813141537e-16  -4.7301350792102969e-16  -4.7288239728091880e-16  -4.7076940330584682e-16  -4.4739544156547185e-16  -2.6666194807936028e-16  1.0415687952517978e-15  9.5004735866330964e-15  5.9196268354976230e-14  3.2313805137768356e-13  1.5928492491752991e-12  7.1214797163246403e-12  2.8918592575036966e-11  1.0672422757186339e-10  3.5821043787734085e-10  1.0942951677725650e-09  3.0455355699597082e-09  7.7306699953314577e-09  1.7922627906777696e-08  3.8015587483514774e-08  7.3930294755950881e-08  1.3217017274751133e-07  2.1793572768218325e-07  3.3280435393263863e-07  4.7305737382035281e-07  6.2976524745396500e-07  7.9097225138357660e-07  9.4518047607776830e-07  1.0844851502771992e-06  1.2061339908634798e-06  1.3118481462455000e-06  1.4062760955113368e-06  1.4943612687094690e-06  1.5810873833159495e-06  1.6688069711902730e-06  1.7611964988335026e-06  1.8567739696771438e-06  1.9610295031142926e-06  2.0668898369544562e-06  2.1872744391396973e-06  2.3033762744411627e-06  2.4453341608482988e-06  2.5698966409374150e-06  2.7411694075686401e-06  2.8708254423282895e-06  3.0811691706665010e-06  3.2122804284511868e-06  3.4713743784443661e-06  3.6031994032407955e-06  3.9170291586570088e-06  4.0554566405033906e-06  4.4237967170073477e-06  4.5818898942871028e-06  5.0010606590038328e-06  5.1931405473631824e-06  5.6647286026745511e-06  5.8974016613596981e-06  6.4349129099300889e-06  6.7065006196440668e-06  7.3283115004313231e-06  7.6437882597306001e-06  8.3543787684873405e-06  8.7426000675566119e-06  9.5243188408859145e-06  -5.1104665408987727e-16  -5.1155031507675197e-16  -5.1196702948427889e-16  -5.1096904615106972e-16  -4.9783103409532628e-16  -3.7737359544566085e-16  5.7414603876516969e-16  7.3927324368751509e-15  5.1535559696741533e-14  3.1034181577803736e-13  1.6836385192973482e-12  8.2807039176685959e-12  3.6968729709102634e-11  1.4990775556702086e-10  5.5242506769304795e-10  1.8512267777288875e-09  5.6455718526063755e-09  1.5682396720613404e-08  3.9723800110962813e-08  9.1877485943904646e-08  1.9436117049245896e-07  3.7683224006172667e-07  6.7133606147784928e-07  1.1024941806860117e-06  1.6756683541276804e-06  2.3687292320169072e-06  3.1330611537371526e-06  3.9053774189613298e-06  4.6258661403921284e-06  5.2543395003087973e-06  5.7775047508556039e-06  6.2055870526110821e-06  6.5626461017269498e-06  6.8754521266097509e-06  7.1672729010508769e-06  7.4533478070407852e-06  7.7449983804426061e-06  8.0450236467577053e-06  8.3611998838696201e-06  8.6872915159231919e-06  9.0382224225193764e-06  9.3933592559470716e-06  9.7887334755737331e-06  1.0172271443032099e-05  1.0625652816913929e-05  1.1033531563275048e-05  1.1563360782680613e-05  1.1988895927841692e-05  1.2616513342486677e-05  1.3054552642326709e-05  1.3798309090678203e-05  1.4252824614476046e-05  1.5120509490812808e-05  1.5610728995410334e-05  1.6597781309286746e-05  1.7154117042567111e-05  1.8255076504706189e-05  1.8902180738264158e-05  2.0129886871807807e-05  2.0872102550122415e-05  2.2261468788428329e-05  2.3095510380767456e-05  2.4675076365032143e-05  2.5628710282676238e-05  2.7384720881857362e-05  -5.6142572996647273e-16  -5.6229413566899039e-16  -5.6257852642042958e-16  -5.5662140310262781e-16  -4.9220178248304606e-16  7.7428078610878656e-17  4.5778735932168759e-15  3.6749600996720242e-14  2.4484928229181747e-13  1.4633525914043437e-12  7.9214907007197679e-12  3.8905163358381510e-11  1.7345997116524427e-10  7.0240581998653055e-10  2.5846226289508625e-09  8.6474948846110692e-09  2.6325862292475516e-08  7.2988550546111299e-08  1.8448870440527018e-07  4.2569205940847163e-07  8.9811625634897209e-07  1.7360015422558381e-06  3.0819889354464830e-06  5.0411187194733827e-06  7.6264341511390924e-06  1.0722600509093853e-05  1.4093300793809943e-05  1.7438656100630742e-05  2.0480641489358856e-05  2.3037402118419498e-05  2.5054607571518735e-05  2.6587600070409891e-05  2.7753645707674734e-05  2.8681406664970286e-05  2.9478582240561101e-05  3.0218681718578118e-05  3.0947350081272247e-05  3.1685779867941390e-05  3.2450453180430725e-05  3.3239522360044967e-05  3.4070910590031401e-05  3.4924132396566502e-05  3.5840920351588813e-05  3.6762318386536229e-05  3.7787934971664024e-05  3.8775007057207751e-05  3.9942063480555337e-05  4.0985106282510633e-05  4.2335121807358010e-05  4.3420965652319040e-05  4.4997098778052560e-05  4.6120851388789661e-05  4.7953096719422130e-05  4.9134436867856168e-05  5.1226348684038247e-05  5.2515685076261136e-05  5.4850763976941637e-05  5.6308604305533257e-05  5.8884323840784315e-05  6.0542004220411215e-05  6.3402842253285603e-05  6.5251167538065848e-05  6.8467999436053184e-05  7.0512670890368005e-05  7.4105115686232793e-05  -6.3010653306316675e-16  -6.3127988493845662e-16  -6.2990929088104733e-16  -6.0211361844818061e-16  -3.2368851455298710e-16  2.1125824178037841e-15  2.1333213423257385e-14  1.5855103917328382e-13  1.0451742204674829e-12  6.2306399263151172e-12  3.3681117703287393e-11  1.6521101768011692e-10  7.3564487126646329e-10  2.9748102997024922e-09  1.0930155296557924e-08  3.6511004751627097e-08  1.1095749303805838e-07  3.0703913026556801e-07  7.7443383920222539e-07  1.7827055286235863e-06  3.7511130564958830e-06  7.2288782896501823e-06  1.2789841828584559e-05  2.0838114132734231e-05  3.1382783648561087e-05  4.3893421732116475e-05  5.7342532142633914e-05  7.0456510391355391e-05  8.2077842653369981e-05  9.1472626152504095e-05  9.8451925102599773e-05  1.0328613400674812e-04  1.0649661075670910e-04  1.0864246099239796e-04  1.1018358790042474e-04  1.1143346537188421e-04  1.1257815629170788e-04  1.1371203679399995e-04  1.1488549608582014e-04  1.1611275991457925e-04  1.17419167