<?xml version="1.0"?>
<VTKFile type="UnstructuredGrid"  version="0.1"  >
<UnstructuredGrid>
<Piece  NumberOfPoints="4225" NumberOfCells="8192">
<Points>
<DataArray  type="Float64"  NumberOfComponents="3"  format="ascii">0 0 0  0.015625 0 0  0.03125 0 0  0.046875 0 0  0.0625 0 0  0.078125 0 0  0.09375 0 0  0.109375 0 0  0.125 0 0  0.140625 0 0  0.15625 0 0  0.171875 0 0  0.1875 0 0  0.203125 0 0  0.21875 0 0  0.234375 0 0  0.25 0 0  0.265625 0 0  0.28125 0 0  0.296875 0 0  0.3125 0 0  0.328125 0 0  0.34375 0 0  0.359375 0 0  0.375 0 0  0.390625 0 0  0.40625 0 0  0.421875 0 0  0.4375 0 0  0.453125 0 0  0.46875 0 0  0.484375 0 0  0.5 0 0  0.515625 0 0  0.53125 0 0  0.546875 0 0  0.5625 0 0  0.578125 0 0  0.59375 0 0  0.609375 0 0  0.625 0 0  0.640625 0 0  0.65625 0 0  0.671875 0 0  0.6875 0 0  0.703125 0 0  0.71875 0 0  0.734375 0 0  0.75 0 0  0.765625 0 0  0.78125 0 0  0.796875 0 0  0.8125 0 0  0.828125 0 0  0.84375 0 0  0.859375 0 0  0.875 0 0  0.890625 0 0  0.90625 0 0  0.921875 0 0  0.9375 0 0  0.953125 0 0  0.96875 0 0  0.984375 0 0  1 0 0  0 0.015625 0  0.015625 0.015625 0  0.03125 0.015625 0  0.046875 0.015625 0  0.0625 0.015625 0  0.078125 0.015625 0  0.09375 0.015625 0  0.109375 0.015625 0  0.125 0.015625 0  0.140625 0.015625 0  0.15625 0.015625 0  0.171875 0.015625 0  0.1875 0.015625 0  0.203125 0.015625 0  0.21875 0.015625 0  0.234375 0.015625 0  0.25 0.015625 0  0.265625 0.015625 0  0.28125 0.015625 0  0.296875 0.015625 0  0.3125 0.015625 0  0.328125 0.015625 0  0.34375 0.015625 0  0.359375 0.015625 0  0.375 0.015625 0  0.390625 0.015625 0  0.40625 0.015625 0  0.421875 0.015625 0  0.4375 0.015625 0  0.453125 0.015625 0  0.46875 0.015625 0  0.484375 0.015625 0  0.5 0.015625 0  0.515625 0.015625 0  0.53125 0.015625 0  0.546875 0.015625 0  0.5625 0.015625 0  0.578125 0.015625 0  0.59375 0.015625 0  0.609375 0.015625 0  0.625 0.015625 0  0.640625 0.015625 0  0.65625 0.015625 0  0.671875 0.015625 0  0.6875 0.015625 0  0.703125 0.015625 0  0.71875 0.015625 0  0.734375 0.015625 0  0.75 0.015625 0  0.765625 0.015625 0  0.78125 0.015625 0  0.796875 0.015625 0  0.8125 0.015625 0  0.828125 0.015625 0  0.84375 0.015625 0  0.859375 0.015625 0  0.875 0.015625 0  0.890625 0.015625 0  0.90625 0.015625 0  0.921875 0.015625 0  0.9375 0.015625 0  0.953125 0.015625 0  0.96875 0.015625 0  0.984375 0.015625 0  1 0.015625 0  0 0.03125 0  0.015625 0.03125 0  0.03125 0.03125 0  0.046875 0.03125 0  0.0625 0.03125 0  0.078125 0.03125 0  0.09375 0.03125 0  0.109375 0.03125 0  0.125 0.03125 0  0.140625 0.03125 0  0.15625 0.03125 0  0.171875 0.03125 0  0.1875 0.03125 0  0.203125 0.03125 0  0.21875 0.03125 0  0.234375 0.03125 0  0.25 0.03125 0  0.265625 0.03125 0  0.28125 0.03125 0  0.296875 0.03125 0  0.3125 0.03125 0  0.328125 0.03125 0  0.34375 0.03125 0  0.359375 0.03125 0  0.375 0.03125 0  0.390625 0.03125 0  0.40625 0.03125 0  0.421875 0.03125 0  0.4375 0.03125 0  0.453125 0.03125 0  0.46875 0.03125 0  0.484375 0.03125 0  0.5 0.03125 0  0.515625 0.03125 0  0.53125 0.03125 0  0.546875 0.03125 0  0.5625 0.03125 0  0.578125 0.03125 0  0.59375 0.03125 0  0.609375 0.03125 0  0.625 0.03125 0  0.640625 0.03125 0  0.65625 0.03125 0  0.671875 0.03125 0  0.6875 0.03125 0  0.703125 0.03125 0  0.71875 0.03125 0  0.734375 0.03125 0  0.75 0.03125 0  0.765625 0.03125 0  0.78125 0.03125 0  0.796875 0.03125 0  0.8125 0.03125 0  0.828125 0.03125 0  0.84375 0.03125 0  0.859375 0.03125 0  0.875 0.03125 0  0.890625 0.03125 0  0.90625 0.03125 0  0.921875 0.03125 0  0.9375 0.03125 0  0.953125 0.03125 0  0.96875 0.03125 0  0.984375 0.03125 0  1 0.03125 0  0 0.046875 0  0.015625 0.046875 0  0.03125 0.046875 0  0.046875 0.046875 0  0.0625 0.046875 0  0.078125 0.046875 0  0.09375 0.046875 0  0.109375 0.046875 0  0.125 0.046875 0  0.140625 0.046875 0  0.15625 0.046875 0  0.171875 0.046875 0  0.1875 0.046875 0  0.203125 0.046875 0  0.21875 0.046875 0  0.234375 0.046875 0  0.25 0.046875 0  0.265625 0.046875 0  0.28125 0.046875 0  0.296875 0.046875 0  0.3125 0.046875 0  0.328125 0.046875 0  0.34375 0.046875 0  0.359375 0.046875 0  0.375 0.046875 0  0.390625 0.046875 0  0.40625 0.046875 0  0.421875 0.046875 0  0.4375 0.046875 0  0.453125 0.046875 0  0.46875 0.046875 0  0.484375 0.046875 0  0.5 0.046875 0  0.515625 0.046875 0  0.53125 0.046875 0  0.546875 0.046875 0  0.5625 0.046875 0  0.578125 0.046875 0  0.59375 0.046875 0  0.609375 0.046875 0  0.625 0.046875 0  0.640625 0.046875 0  0.65625 0.046875 0  0.671875 0.046875 0  0.6875 0.046875 0  0.703125 0.046875 0  0.71875 0.046875 0  0.734375 0.046875 0  0.75 0.046875 0  0.765625 0.046875 0  0.78125 0.046875 0  0.796875 0.046875 0  0.8125 0.046875 0  0.828125 0.046875 0  0.84375 0.046875 0  0.859375 0.046875 0  0.875 0.046875 0  0.890625 0.046875 0  0.90625 0.046875 0  0.921875 0.046875 0  0.9375 0.046875 0  0.953125 0.046875 0  0.96875 0.046875 0  0.984375 0.046875 0  1 0.046875 0  0 0.0625 0  0.015625 0.0625 0  0.03125 0.0625 0  0.046875 0.0625 0  0.0625 0.0625 0  0.078125 0.0625 0  0.09375 0.0625 0  0.109375 0.0625 0  0.125 0.0625 0  0.140625 0.0625 0  0.15625 0.0625 0  0.171875 0.0625 0  0.1875 0.0625 0  0.203125 0.0625 0  0.21875 0.0625 0  0.234375 0.0625 0  0.25 0.0625 0  0.265625 0.0625 0  0.28125 0.0625 0  0.296875 0.0625 0  0.3125 0.0625 0  0.328125 0.0625 0  0.34375 0.0625 0  0.359375 0.0625 0  0.375 0.0625 0  0.390625 0.0625 0  0.40625 0.0625 0  0.421875 0.0625 0  0.4375 0.0625 0  0.453125 0.0625 0  0.46875 0.0625 0  0.484375 0.0625 0  0.5 0.0625 0  0.515625 0.0625 0  0.53125 0.0625 0  0.546875 0.0625 0  0.5625 0.0625 0  0.578125 0.0625 0  0.59375 0.0625 0  0.609375 0.0625 0  0.625 0.0625 0  0.640625 0.0625 0  0.65625 0.0625 0  0.671875 0.0625 0  0.6875 0.0625 0  0.703125 0.0625 0  0.71875 0.0625 0  0.734375 0.0625 0  0.75 0.0625 0  0.765625 0.0625 0  0.78125 0.0625 0  0.796875 0.0625 0  0.8125 0.0625 0  0.828125 0.0625 0  0.84375 0.0625 0  0.859375 0.0625 0  0.875 0.0625 0  0.890625 0.0625 0  0.90625 0.0625 0  0.921875 0.0625 0  0.9375 0.0625 0  0.953125 0.0625 0  0.96875 0.0625 0  0.984375 0.0625 0  1 0.0625 0  0 0.078125 0  0.015625 0.078125 0  0.03125 0.078125 0  0.046875 0.078125 0  0.0625 0.078125 0  0.078125 0.078125 0  0.09375 0.078125 0  0.109375 0.078125 0  0.125 0.078125 0  0.140625 0.078125 0  0.15625 0.078125 0  0.171875 0.078125 0  0.1875 0.078125 0  0.203125 0.078125 0  0.21875 0.078125 0  0.234375 0.078125 0  0.25 0.078125 0  0.265625 0.078125 0  0.28125 0.078125 0  0.296875 0.078125 0  0.3125 0.078125 0  0.328125 0.078125 0  0.34375 0.078125 0  0.359375 0.078125 0  0.375 0.078125 0  0.390625 0.078125 0  0.40625 0.078125 0  0.421875 0.078125 0  0.4375 0.078125 0  0.453125 0.078125 0  0.46875 0.078125 0  0.484375 0.078125 0  0.5 0.078125 0  0.515625 0.078125 0  0.53125 0.078125 0  0.546875 0.078125 0  0.5625 0.078125 0  0.578125 0.078125 0  0.59375 0.078125 0  0.609375 0.078125 0  0.625 0.078125 0  0.640625 0.078125 0  0.65625 0.078125 0  0.671875 0.078125 0  0.6875 0.078125 0  0.703125 0.078125 0  0.71875 0.078125 0  0.734375 0.078125 0  0.75 0.078125 0  0.765625 0.078125 0  0.78125 0.078125 0  0.796875 0.078125 0  0.8125 0.078125 0  0.828125 0.078125 0  0.84375 0.078125 0  0.859375 0.078125 0  0.875 0.078125 0  0.890625 0.078125 0  0.90625 0.078125 0  0.921875 0.078125 0  0.9375 0.078125 0  0.953125 0.078125 0  0.96875 0.078125 0  0.984375 0.078125 0  1 0.078125 0  0 0.09375 0  0.015625 0.09375 0  0.03125 0.09375 0  0.046875 0.09375 0  0.0625 0.09375 0  0.078125 0.09375 0  0.09375 0.09375 0  0.109375 0.09375 0  0.125 0.09375 0  0.140625 0.09375 0  0.15625 0.09375 0  0.171875 0.09375 0  0.1875 0.09375 0  0.203125 0.09375 0  0.21875 0.09375 0  0.234375 0.09375 0  0.25 0.09375 0  0.265625 0.09375 0  0.28125 0.09375 0  0.296875 0.09375 0  0.3125 0.09375 0  0.328125 0.09375 0  0.34375 0.09375 0  0.359375 0.09375 0  0.375 0.09375 0  0.390625 0.09375 0  0.40625 0.09375 0  0.421875 0.09375 0  0.4375 0.09375 0  0.453125 0.09375 0  0.46875 0.09375 0  0.484375 0.09375 0  0.5 0.09375 0  0.515625 0.09375 0  0.53125 0.09375 0  0.546875 0.09375 0  0.5625 0.09375 0  0.578125 0.09375 0  0.59375 0.09375 0  0.609375 0.09375 0  0.625 0.09375 0  0.640625 0.09375 0  0.65625 0.09375 0  0.671875 0.09375 0  0.6875 0.09375 0  0.703125 0.09375 0  0.71875 0.09375 0  0.734375 0.09375 0  0.75 0.09375 0  0.765625 0.09375 0  0.78125 0.09375 0  0.796875 0.09375 0  0.8125 0.09375 0  0.828125 0.09375 0  0.84375 0.09375 0  0.859375 0.09375 0  0.875 0.09375 0  0.890625 0.09375 0  0.90625 0.09375 0  0.921875 0.09375 0  0.9375 0.09375 0  0.953125 0.09375 0  0.96875 0.09375 0  0.984375 0.09375 0  1 0.09375 0  0 0.109375 0  0.015625 0.109375 0  0.03125 0.109375 0  0.046875 0.109375 0  0.0625 0.109375 0  0.078125 0.109375 0  0.09375 0.109375 0  0.109375 0.109375 0  0.125 0.109375 0  0.140625 0.109375 0  0.15625 0.109375 0  0.171875 0.109375 0  0.1875 0.109375 0  0.203125 0.109375 0  0.21875 0.109375 0  0.234375 0.109375 0  0.25 0.109375 0  0.265625 0.109375 0  0.28125 0.109375 0  0.296875 0.109375 0  0.3125 0.109375 0  0.328125 0.109375 0  0.34375 0.109375 0  0.359375 0.109375 0  0.375 0.109375 0  0.390625 0.109375 0  0.40625 0.109375 0  0.421875 0.109375 0  0.4375 0.109375 0  0.453125 0.109375 0  0.46875 0.109375 0  0.484375 0.109375 0  0.5 0.109375 0  0.515625 0.109375 0  0.53125 0.109375 0  0.546875 0.109375 0  0.5625 0.109375 0  0.578125 0.109375 0  0.59375 0.109375 0  0.609375 0.109375 0  0.625 0.109375 0  0.640625 0.109375 0  0.65625 0.109375 0  0.671875 0.109375 0  0.6875 0.109375 0  0.703125 0.109375 0  0.71875 0.109375 0  0.734375 0.109375 0  0.75 0.109375 0  0.765625 0.109375 0  0.78125 0.109375 0  0.796875 0.109375 0  0.8125 0.109375 0  0.828125 0.109375 0  0.84375 0.109375 0  0.859375 0.109375 0  0.875 0.109375 0  0.890625 0.109375 0  0.90625 0.109375 0  0.921875 0.109375 0  0.9375 0.109375 0  0.953125 0.109375 0  0.96875 0.109375 0  0.984375 0.109375 0  1 0.109375 0  0 0.125 0  0.015625 0.125 0  0.03125 0.125 0  0.046875 0.125 0  0.0625 0.125 0  0.078125 0.125 0  0.09375 0.125 0  0.109375 0.125 0  0.125 0.12
[...]
<PointData  Scalars="f_4824"> 
<DataArray  type="Float64"  Name="f_4824"  format="ascii">-3.3971808286069746e-15  -3.4011433694337845e-15  -3.4006427531733179e-15  -3.3987385151233672e-15  -3.3966310715472757e-15  -3.3947407920004730e-15  -3.3932016456327900e-15  -3.3919652482995881e-15  -3.3910211336102245e-15  -3.3903600605576341e-15  -3.3897222322944984e-15  -3.3893826567556973e-15  -3.3891794304753625e-15  -3.3882926400310949e-15  -3.3865194291167130e-15  -3.3846271998787762e-15  -3.3562886325989518e-15  -3.3155951919798115e-15  -3.0669418949680465e-15  -2.6232605337845723e-15  -3.5312551546387822e-16  3.1883286563914577e-15  2.1165169709655555e-14  4.9724183875282927e-14  1.8411428881119334e-13  4.0171113903840308e-13  1.3889956736562889e-12  3.0816660747522439e-12  1.0113422662078998e-11  2.3074418831259516e-11  7.2602422330107661e-11  1.7082385564038691e-10  5.0894118442780526e-10  1.2159483616584087e-09  3.4455513400557591e-09  8.3123326152922058e-09  2.2327101942621090e-08  5.2742953408004494e-08  1.3122480243282987e-07  2.9277357210577978e-07  6.6545338241448256e-07  1.3792696837067335e-06  2.8668497041300163e-06  5.5168751368839781e-06  1.0568312406222495e-05  1.9003350498253770e-05  3.3850024678823671e-05  5.7363548041802145e-05  9.5743845301552341e-05  1.5427456941988395e-04  2.4268225322665439e-04  3.7502773867451793e-04  5.5825805754002034e-04  8.3403801152567934e-04  1.1782219677498637e-03  1.7136239334233909e-03  2.3035188985487823e-03  3.2777253858908731e-03  4.2087530634626284e-03  5.8709559790754394e-03  7.2428287220919719e-03  9.8981714393161641e-03  1.1823214922196722e-02  1.5685165752296504e-02  1.8947399105201903e-02  -3.5099572762041903e-15  -3.5029296478857340e-15  -3.4985943957574172e-15  -3.4957304817340236e-15  -3.4937394132567136e-15  -3.4923127836684809e-15  -3.4912750112466344e-15  -3.4904945322426464e-15  -3.4899522928566304e-15  -3.4895280711965029e-15  -3.4891402816247585e-15  -3.4889155103498818e-15  -3.4879118219049949e-15  -3.4843216472047080e-15  -3.4722898069843866e-15  -3.4235675309783486e-15  -3.2565588463825273e-15  -2.7245986617418502e-15  -1.0681077107140417e-15  3.7979920548239393e-15  1.7558077848560481e-14  5.5536926087591146e-14  1.5931568358049419e-13  4.3597031827711845e-13  1.1779183895352726e-12  3.1332802644429171e-12  8.3365010766318247e-12  2.1871915135934556e-11  5.7575632385617826e-11  1.4943610556124773e-10  3.8829567668397906e-10  9.9072661718851669e-10  2.5227813575598889e-09  6.2957070700823379e-09  1.5601791520539693e-08  3.7620238779560822e-08  8.9063762206252251e-08  2.0312475044275390e-07  4.5053937343129098e-07  9.5766961236554072e-07  1.9733446417779937e-06  3.8965375373828191e-06  7.4674423970001815e-06  1.3749327754047660e-05  2.4644553599905263e-05  4.2589122806940542e-05  7.1883444105058110e-05  1.1741981651245348e-04  1.8781849789276130e-04  2.9196475926614830e-04  4.4497615316631305e-04  6.6246471282156315e-04  9.6605490438510179e-04  1.3856566366023779e-03  1.9392946506898759e-03  2.6950894201713338e-03  3.6277138377012524e-03  4.9096545666867586e-03  6.3675258537623071e-03  8.4255252382412146e-03  1.0554558670974998e-02  1.3684874736794134e-02  1.6602950209481562e-02  2.1182766444149789e-02  2.4728642932947485e-02  -3.6880606482687944e-15  -3.6884796737133201e-15  -3.6885155338662927e-15  -3.6884278997769743e-15  -3.6883197343602133e-15  -3.6882317150213372e-15  -3.6881654102373976e-15  -3.6881153688585369e-15  -3.6881193449725987e-15  -3.6880043982156731e-15  -3.6876809167631402e-15  -3.6860645672419054e-15  -3.6773431636673758e-15  -3.6415507927098524e-15  -3.4981389719410797e-15  -2.9658621851575963e-15  -1.1480169650545409e-15  4.6836095004565253e-15  2.2421831608722002e-14  7.3545036328905063e-14  2.1586264291906470e-13  5.9974724574517889e-13  1.6166349905869308e-12  4.2629403428114024e-12  1.1111122049741232e-11  2.8624773744270386e-11  7.3280085135906985e-11  1.8584279884887492e-10  4.6855307526998363e-10  1.1683041161724510e-09  2.8879787606170511e-09  7.0380854051670406e-09  1.6942081699735393e-08  4.0007269804993285e-08  9.2675627004041762e-08  2.0892554890748598e-07  4.5839604491181230e-07  9.7248270306786962e-07  1.9991154108917853e-06  3.9642681382982849e-06  7.6147661459154502e-06  1.4120860148516139e-05  2.5418426740979792e-05  4.4272321329888627e-05  7.5082787234691738e-05  1.2354307179395299e-04  1.9856990290611660e-04  3.1050305868203878e-04  4.7561092884204045e-04  7.1075738387710557e-04  1.0424618025486802e-03  1.4966915125920522e-03  2.1098784733115149e-03  2.9249814394753282e-03  3.9737157206660642e-03  5.3459569666549850e-03  7.0105276678065912e-03  9.1980813106827940e-03  1.1653183078743636e-02  1.4979606456660749e-02  1.8350080933753395e-02  2.3185226068677550e-02  2.7529039979448080e-02  3.4187398124775531e-02  3.9579836797189877e-02  -3.8938172008747106e-15  -3.8937221367255489e-15  -3.8937392977947860e-15  -3.8937948696563639e-15  -3.8938674253818205e-15  -3.8939446041012984e-15  -3.8940087954172393e-15  -3.8940712703245133e-15  -3.8940472935749756e-15  -3.8933996450641066e-15  -3.8900303938064374e-15  -3.8718022181448294e-15  -3.7862933101727996e-15  -3.4208214657675746e-15  -1.9704474261069284e-15  3.3288437631921840e-15  2.1306406478620285e-14  7.8368571779620854e-14  2.4883132180177474e-13  7.3249559084645735e-13  2.0487022189364612e-12  5.5151125846385874e-12  1.4426245000820713e-11  3.6941714754028906e-11  9.3112791649178393e-11  2.3178586132343653e-10  5.7090751244856816e-10  1.3918105815046670e-09  3.3566972666139492e-09  7.9973545597530402e-09  1.8794920041867176e-08  4.3469425715481091e-08  9.8700055282706965e-08  2.1926597335274402e-07  4.7522247540334684e-07  1.0016721700110838e-06  2.0497683144130610e-06  4.0651236312908331e-06  7.8130527690949319e-06  1.4545890414762717e-05  2.6265678639735397e-05  4.6007227014263468e-05  7.8335555000193103e-05  1.2967479013344555e-04  2.0924412819276560e-04  3.2904429345723059e-04  5.0581903191684874e-04  7.5946784056040524e-04  1.1177054783518183e-03  1.6098948847890744e-03  2.2780995469780210e-03  3.1613105170337804e-03  4.3168088212262945e-03  5.7948153349279569e-03  7.6567140131204477e-03  9.9828651768103724e-03  1.2785336043804302e-02  1.6259781301458654e-02  2.0198077882240099e-02  2.5169651560348161e-02  3.0320987540758532e-02  3.7187936844387634e-02  4.3436981736213728e-02  5.2608085906073965e-02  5.9659022984246725e-02  -4.1138978264106226e-15  -4.1140106629674114e-15  -4.1141035461434449e-15  -4.1141846313223771e-15  -4.1142681499021647e-15  -4.1143383084239758e-15  -4.1143838180406830e-15  -4.1143198304433803e-15  -4.1133805083632703e-15  -4.1074983266684188e-15  -4.0746862982543098e-15  -3.9061478577453860e-15  -3.1219640128177197e-15  2.3015784578257898e-16  1.3403296561715861e-14  6.1136867677929449e-14  2.2152195269341888e-13  7.2400199762842147e-13  2.2021459645170678e-12  6.3191048526508061e-12  1.7273668931067760e-11  4.5376265620711923e-11  1.1548496039258412e-10  2.8676547120661241e-10  6.9856191471339212e-10  1.6754916616969661e-09  3.9643711103010613e-09  9.2573107697215661e-09  2.1321178982227274e-08  4.8368329271810983e-08  1.0787790510099049e-07  2.3600351899840451e-07  5.0516711182597292e-07  1.0552990187823901e-06  2.1468784197520059e-06  4.2459937966608725e-06  8.1557738231352495e-06  1.5206684266527122e-05  2.7527602168431972e-05  4.8397605053354503e-05  8.2721135664137662e-05  1.3755821657804879e-04  2.2285900873883043e-04  3.5205414826700780e-04  5.4315294743920162e-04  8.1891857939945167e-04  1.2087904203453986e-03  1.7472490057249019e-03  2.4782893662788998e-03  3.4483881926523079e-03  4.7183076151313015e-03  6.3431887005644984e-03  8.4003594779640603e-03  1.0948207734961614e-02  1.4070705106370080e-02  1.7836876282739049e-02  2.2288067733764058e-02  2.7578698765447357e-02  3.3530435722294812e-02  4.0664913354402289e-02  4.8085093272342373e-02  5.7424433853413059e-02  6.5958630352090597e-02  7.7916914344379168e-02  8.6862779928924105e-02  -4.3490530343230463e-15  -4.3491439283443833e-15  -4.3492350862583662e-15  -4.3493180981787014e-15  -4.3493980683019000e-15  -4.3494338388291966e-15  -4.3493273960637613e-15  -4.3481537069106160e-15  -4.3399917404705084e-15  -4.2903877650934180e-15  -4.0138335948755455e-15  -2.6091188784875035e-15  3.9069108873652796e-15  3.1595496711841546e-14  1.3959382193182043e-13  5.2765884851516086e-13  1.8178742988404401e-12  5.8080571471694883e-12  1.7362367062856610e-11  4.8930387530687528e-11  1.3100574711706834e-10  3.3589745863564044e-10  8.3121762139364010e-10  1.9991964809252597e-09  4.6997746900196929e-09  1.0841270834595300e-08  2.4592331818655007e-08  5.4891884285963890e-08  1.2049825066807458e-07  2.5980663417578577e-07  5.4920887851979361e-07  1.1359573460817208e-06  2.2943273783598821e-06  4.5170393970794997e-06  8.6571841844598272e-06  1.6137989333965881e-05  2.9249509572033533e-05  5.1547650451720263e-05  8.8371735620398239e-05  1.4747571638188059e-04  2.3978747855579096e-04  3.8022451469341747e-04  5.8864062305678019e-04  8.9060029033003038e-04  1.3184459702282789e-03  1.9114510396263402e-03  2.7172774640463761e-03  3.7900422956460888e-03  5.1938599450444206e-03  6.9949398481540508e-03  9.2729247627683486e-03  1.2097481363279960e-02  1.5561040309168018e-02  1.9722383209685404e-02  2.4678935801466670e-02  3.0470540809793844e-02  3.7162419423339178e-02  4.4827964369432573e-02  5.3339947278604034e-02  6.3082849346575459e-02  7.3203770396647369e-02  8.5266536345291258e-02  9.6313610621689277e-02  1.1110009185713350e-01  1.2181119570848478e-01  -4.6001219075825041e-15  -4.6002138120143310e-15  -4.6002939134203460e-15  -4.6003581335697763e-15  -4.6003921312008721e-15  -4.6002496933437106e-15  -4.5990047595088614e-15  -4.5896863257473752e-15  -4.5276577311699118e-15  -4.1502992740339489e-15  -2.0567421243904460e-15  8.5285819139189670e-15  5.7398073775143397e-14  2.6378072391740645e-13  1.0629760950241297e-12  3.9097388805165010e-12  1.3273803057977068e-11  4.1857193009541457e-11  1.2330847668421970e-10  3.4152849883983085e-10  8.9564189440066865e-10  2.2406967416673863e-09  5.3882851876342884e-09  1.2542020984214882e-08  2.8422340091372393e-08  6.2974342242243788e-08  1.3676308824155979e-07  2.9140144624404372e-07  6.0901428200273935e-07  1.2471752608076154e-06  2.4989866784164496e-06  4.8917881814164773e-06  9.3418754139136825e-06  1.7385707057384406e-05  3.1509492805266463e-05  5.5597313730231982e-05  9.5513162829120526e-05  1.5982128445709472e-04  2.6063883589479820e-04  4.1458874837500489e-04  6.4382213333491099e-04  9.7700951135816852e-04  1.4502991810952345e-03  2.1079609897996453e-03  3.0030224854603348e-03  4.1969059098947454e-03  5.7598597328719680e-03  7.7682214281718414e-03  1.0306307868786916e-02  1.3457582249455192e-02  1.7314302354220167e-02  2.1952057450910271e-02  2.7464550454086460e-02  3.3896636113597875e-02  4.1338520370104180e-02  4.9781348041380867e-02  5.9292979753947310e-02  6.9834960270945406e-02  8.1331449042003012e-02  9.3959390036708876e-02  1.0698587501702692e-01  1.2173176660509262e-01  1.3523504917155268e-01  1.5245554467632785e-01  1.6453850392889011e-01  -4.8683650988135232e-15  -4.8684326719727120e-15  -4.8684766099294920e-15  -4.8684810915490534e-15  -4.8683362604617333e-15  -4.8671803586651577e-15  -4.8583702206526436e-15  -4.7942749318549753e-15  -4.3677366524156334e-15  -1.7785553062922925e-15  1.2528932323713294e-14  8.4559197500029034e-14  4.1539309716434669e-13  1.8040152406577078e-12  7.1422686647777344e-12  2.5990419950122578e-11  8.7326864278348224e-11  2.7210869551798787e-10  7.9024110382707362e-10  2.1513109338662264e-09  5.5259536664311805e-09  1.3488052883970246e-08  3.1512626694790560e-08  7.0960404165675321e-08  1.5493256607375263e-07  3.2950095361122331e-07  6.8462076263564350e-07  1.3917182027905849e-06  2.7686123990447545e-06  5.3869214731401013e-06  1.0241867235528172e-05  1.9008437742278049e-05  3.4409870687984319e-05  6.0722928597374944e-05  1.0443830360255425e-04  1.7508282188574768e-04  2.8619353279671556e-04  4.5641172309052674e-04  7.1064313891334801e-04  1.0812015368027994e-03  1.6088449666118566e-03  2.3435664472657870e-03  3.3450727123181157e-03  4.6827033708053672e-03  6.4349857708921598e-03  8.6880826609985091e-03  1.1534555558199076e-02  1.5069321980966799e-02  1.9389385446360111e-02  2.4584175210600159e-02  3.0742875648609076e-02  3.7928569220949428e-02  4.6213024475425732e-02  5.5604417594122206e-02  6.6157486044362460e-02  7.7791322808879210e-02  9.0549901289874460e-02  1.0425622025165021e-01  1.1888327359371190e-01  1.3434030033731220e-01  1.5010019913971717e-01  1.6705740502503499e-01  1.8254610087727402e-01  2.0129205554349822e-01  2.1399895156922061e-01  -5.1551065700402265e-15  -5.1551121806451122e-15  -5.1550636275367257e-15  -5.1548823339419185e-15  -5.1539332817240617e-15  -5.1469103248720757e-15  -5.0921955550352789e-15  -4.6936413659631187e-15  -2.0431634786800981e-15  1.3995497740548438e-14  1.0228521760221567e-13  5.4481104232619798e-13  2.5667772644382410e-12  1.1001814455144976e-11  4.3192448712770547e-11  1.5585385384328779e-10  5.1857995376437434e-10  1.5971287871643186e-09  4.5733275734585568e-09  1.2239774364686942e-08  3.0801679424247629e-08  7.3369304827553192e-08  1.6657501457045148e-07  3.6292559480627694e-07  7.6348798968326985e-07  1.5585674392570230e-06  3.0982899221644232e-06  6.0102808341316565e-06  1.1387355275149030e-05  2.1073208321230613e-05  3.8076936209150981e-05  6.7145975003276353e-05  1.1552000134265413e-04  1.9387442721463793e-04  3.1744140152112138e-04  5.0726990198954433e-04  7.9155735546566908e-04  1.2069558000712395e-03  1.7997319679657205e-03  2.6266405822961540e-03  3.7553724635315620e-03  5.2644259252853116e-03  7.2423225550948813e-03  9.7859996819979877e-03  1.2998553042585211e-02  1.6985871334814898e-02  2.1853325665941704e-02  2.7700252407598221e-02  3.4617592284215057e-02  4.2678008790892411e-02  5.1941117472838791e-02  6.2429405962104029e-02  7.4161732537784519e-02  8.7081938066623052e-02  1.0117775183613249e-01  1.1627610623336737e-01  1.3236999708134453e-01  1.4913334989758087e-01  1.6658167258519524e-01  1.8432905147771597e-01  2.0213260292116605e-01  2.2030591535989758e-01  2.3681809297271542e-01  2.5563567324252073e-01  2.6788846598998967e-01  -5.4617396021383640e-15  -5.4615972132487177e-15  -5.4613163969008464e-15  -5.4605014794952647e-15  -5.4556574274956795e-15  -5.4168386246189125e-15  -5.1093744572033307e-15  -2.8678335764368341e-15  1.2006442760416342e-14  1.0171661288119966e-13  5.9365625386816097e-13  3.0483895058300455e-12  1.4206375833344200e-11  6.0470982230644861e-11  2.3575377982703061e-10  8.4388637062942316e-10  2.7812644451269923e-09  8.4682550323202282e-09  2.3915991542932645e-08  6.2949778737648257e-08  1.5527545205970568e-07  3.6115220550805791e-07  7.9729896850497165e-07  1.6818577234586798e-06  3.4112362114952841e-06  6.6884097447383459e-06  1.2729857388259099e-05  2.3584969505191491e-05  4.2605298822165122e-05  7.5099337670846370e-05  1.2919987873519944e-04  2.1695428904441920e-04  3.5562293305741637e-04  5.6913872867792037e-04  8.8964448887629934e-04  1.3589888760426310e-03  2.0300319674110738e-03  2.9675921926408566e-03  4.2488628611884131e-03  5.9631376439629770e-03  8.2107195475632083e-03  1.1100922162855792e-02  1.4749162786481536e-02  1.9273135530254077e-02  2.4788315978941201e-02  3.1402649404163686e-02  3.9211426169249532e-02  4.8290870046405643e-02  5.8694656103276455e-02  7.0445127568002808e-02  8.3537656913710484e-02  9.7920768926693880e-02  1.1352810980749586e-01  1.3021377799219627e-01  1.4787306390724700e-01  1.6623175672765292e-01  1.8521492530410855e-01  2.0436010158038723e-01  2.2372291476626124e-01  2.4263775122565548e-01  2.6120829953748120e-01  2.7907350710096385e-01  2.9516220627372192e-01  3.1214700165178927e-01  3.2262628079005573e-01  -5.7896473948334582e-15  -5.7891660569669774e-15  -5.7882781332340234e-15  -5.7850639975722161e-15  -5.7617861795930243e-15  -5.5656449697700795e-15  -4.0015925112254394e-15  7.3888996341474124e-15  8.2767281701954094e-14  5.3586808408960625e-13  3.0109641080237508e-12  1.5306844951249482e-11  7.0911037765085277e-11  3.0007712787488444e-10  1.1621312373467023e-09  4.1274787336743737e-09  1.3477320561546747e-08  4.0580540257974780e-08  1.1308338436196793e-07  2.9289654025510174e-07  7.0866880505388984e-07  1.6108676175697259e-06  3.4615322729117458e-06  7.0775508488063798e-06  1.3856545418298268e-05  2.6126360097359297e-05  4.7667984225339625e-05  8.4461565312104342e-05  1.4569214825632280e-04  2.4502625438762790e-04  4.0213582167058321e-04  6.4440617995511302e-04  1.0087225555600883e-03  1.5431883319761788e-03  2.3085931612962587e-03  3.3794268874953004e-03  4.8442325238933770e-03  6.8051115564080576e-03  9.3762381531630329e-03  1.2681300460413091e-02  1.6849866466706942e-02  2.2012748881387760e-02  2.8296545845242264e-02  3.5817562350595793e-02  4.4675500344103003e-02  5.4947045305347254e-02  6.6680227218374563e-02  7.9888685995086181e-02  9.4548983914343354e-02  1.1059486557039955e-01  1.2792268030063716e-01  1.4637795580942689e-01  1.6578619909338546e-01  1.8589942081273547e-01  2.0651232564463962e-01  2.2726075130401271e-01  2.4800471411859770e-01  2.6818620904878032e-01  2.8790778984895504e-01  3.0628641174802396e-01  3.2380834981353590e-01  3.3942792790579540e-01  3.5328563683192715e-01  3.6630434170503967e-01  3.7361926700151032e-01  -6.1400451279802283e-15  -6.1387950558181249e-15  -6.1362077213074975e-15  -6.1235913681863602e-15  -6.0191999549780796e-15  -5.1187252916477122e-15  2.0738733480513922e-15  5.4350547090510031e-14  3.9930294229330804e-13  2.4658853506791749e-12  1.3711751059599261e-11  6.9335574616021792e-11  3.1960621440318328e-10  1.3449779784465775e-09  5.1752430717049568e-09  1.8241482807444883e-08  5.9029279628018575e-08  1.7584087180468374e-07  4.8375353395357119e-07  1.2338474427883525e-06  2.9309630461172170e-06  6.5185066331672477e-06  1.3652600256534957e-05  2.7097629630675696e-05  5.1292868279792889e-05  9.3158520178892966e-05  1.6321305962595375e-04  2.7704619127092800e-04  4.5713113973055379e-04  7.3488290075268302e-04  1.1527996818262347e-03  1.7664781172791579e-03  2.6462689329851065e-03  3.8783318565312462e-03  5.5648549277208343e-03  7.8232296402400443e-03  1.0784026136234939e-02  1.4587692158482936e-02  1.9379998501695334e-02  2.5306359669616484e-02  3.2505261817534749e-02  4.1101113608805522e-02  5.1196911036162175e-02  6.2867116674683143e-02  7.6151233235032575e-02  9.1048340739816824e-02  1.0751328096307675e-01  1.2545394962534645e-01  1.4473181469222013e-01  1.6516121106051357e-01  1.8651768668866561e-01  2.0853232635578609e-01  2.3092160554003724e-01  2.5334719854212834e-01  2.7552200651853742e-01  2.9702899558648482e-01  3.1769150975130123e-01  3.3692302253826634e-01  3.5489097321606816e-01  3.7059583879002894e-01  3.8490812524467077e-01  3.9617739099175847e-01  4.0587996254628755e-01  4.1290014049340718e-01  4.1581296172354681e-01  -6.5136386293797630e-15  -6.5106411768574584e-15  -6.5030140899753583e-15  -6.4547421438030014e-15  -6.0250629670987609e-15  -2.2819177902792010e-15  2.7600143734668045e-14  2.4427464582926991e-13  1.6698718033456518e-12  1.0182325464352127e-11  5.6331738650597303e-11  2.8361727087941116e-10  1.3012036941810230e-09  5.4463330648499110e-09  2.0825763983693780e-08  7.2869487650706455e-08  2.3377493498654432e-07  6.8928492753221142e-07  1.8732956868515753e-06  4.7090255196138508e-06  1.0994251268400004e-05  2.3955245358230376e-05  4.8979292462672169e-05  9.4539227182415862e-05  1.7335767959721291e-04  3.0390392436708115e-04  5.1231924984661791e-04  8.3477958792154143e-04  1.3201354680474390e-03  2.0324942840080134e-03  3.0533170181156815e-03  4.4826246562198573e-03  6.4390103567879232e-03  9.0582677716238569e-03  1.2490539186353098e-02  1.6895967866650482e-02  2.2438931105434792e-02  2.9281042766442660e-02  3.7573233812140172e-02  4.7447323751186696e-02  5.9007568559589364e-02  7.2322699401295640e-02  8.7418960823034741e-02  1.042