<?xml version="1.0"?>
<VTKFile type="UnstructuredGrid"  version="0.1"  >
<UnstructuredGrid>
<Piece  NumberOfPoints="4225" NumberOfCells="8192">
<Points>
<DataArray  type="Float64"  NumberOfComponents="3"  format="ascii">0 0 0  0.015625 0 0  0.03125 0 0  0.046875 0 0  0.0625 0 0  0.078125 0 0  0.09375 0 0  0.109375 0 0  0.125 0 0  0.140625 0 0  0.15625 0 0  0.171875 0 0  0.1875 0 0  0.203125 0 0  0.21875 0 0  0.234375 0 0  0.25 0 0  0.265625 0 0  0.28125 0 0  0.296875 0 0  0.3125 0 0  0.328125 0 0  0.34375 0 0  0.359375 0 0  0.375 0 0  0.390625 0 0  0.40625 0 0  0.421875 0 0  0.4375 0 0  0.453125 0 0  0.46875 0 0  0.484375 0 0  0.5 0 0  0.515625 0 0  0.53125 0 0  0.546875 0 0  0.5625 0 0  0.578125 0 0  0.59375 0 0  0.609375 0 0  0.625 0 0  0.640625 0 0  0.65625 0 0  0.671875 0 0  0.6875 0 0  0.703125 0 0  0.71875 0 0  0.734375 0 0  0.75 0 0  0.765625 0 0  0.78125 0 0  0.796875 0 0  0.8125 0 0  0.828125 0 0  0.84375 0 0  0.859375 0 0  0.875 0 0  0.890625 0 0  0.90625 0 0  0.921875 0 0  0.9375 0 0  0.953125 0 0  0.96875 0 0  0.984375 0 0  1 0 0  0 0.015625 0  0.015625 0.015625 0  0.03125 0.015625 0  0.046875 0.015625 0  0.0625 0.015625 0  0.078125 0.015625 0  0.09375 0.015625 0  0.109375 0.015625 0  0.125 0.015625 0  0.140625 0.015625 0  0.15625 0.015625 0  0.171875 0.015625 0  0.1875 0.015625 0  0.203125 0.015625 0  0.21875 0.015625 0  0.234375 0.015625 0  0.25 0.015625 0  0.265625 0.015625 0  0.28125 0.015625 0  0.296875 0.015625 0  0.3125 0.015625 0  0.328125 0.015625 0  0.34375 0.015625 0  0.359375 0.015625 0  0.375 0.015625 0  0.390625 0.015625 0  0.40625 0.015625 0  0.421875 0.015625 0  0.4375 0.015625 0  0.453125 0.015625 0  0.46875 0.015625 0  0.484375 0.015625 0  0.5 0.015625 0  0.515625 0.015625 0  0.53125 0.015625 0  0.546875 0.015625 0  0.5625 0.015625 0  0.578125 0.015625 0  0.59375 0.015625 0  0.609375 0.015625 0  0.625 0.015625 0  0.640625 0.015625 0  0.65625 0.015625 0  0.671875 0.015625 0  0.6875 0.015625 0  0.703125 0.015625 0  0.71875 0.015625 0  0.734375 0.015625 0  0.75 0.015625 0  0.765625 0.015625 0  0.78125 0.015625 0  0.796875 0.015625 0  0.8125 0.015625 0  0.828125 0.015625 0  0.84375 0.015625 0  0.859375 0.015625 0  0.875 0.015625 0  0.890625 0.015625 0  0.90625 0.015625 0  0.921875 0.015625 0  0.9375 0.015625 0  0.953125 0.015625 0  0.96875 0.015625 0  0.984375 0.015625 0  1 0.015625 0  0 0.03125 0  0.015625 0.03125 0  0.03125 0.03125 0  0.046875 0.03125 0  0.0625 0.03125 0  0.078125 0.03125 0  0.09375 0.03125 0  0.109375 0.03125 0  0.125 0.03125 0  0.140625 0.03125 0  0.15625 0.03125 0  0.171875 0.03125 0  0.1875 0.03125 0  0.203125 0.03125 0  0.21875 0.03125 0  0.234375 0.03125 0  0.25 0.03125 0  0.265625 0.03125 0  0.28125 0.03125 0  0.296875 0.03125 0  0.3125 0.03125 0  0.328125 0.03125 0  0.34375 0.03125 0  0.359375 0.03125 0  0.375 0.03125 0  0.390625 0.03125 0  0.40625 0.03125 0  0.421875 0.03125 0  0.4375 0.03125 0  0.453125 0.03125 0  0.46875 0.03125 0  0.484375 0.03125 0  0.5 0.03125 0  0.515625 0.03125 0  0.53125 0.03125 0  0.546875 0.03125 0  0.5625 0.03125 0  0.578125 0.03125 0  0.59375 0.03125 0  0.609375 0.03125 0  0.625 0.03125 0  0.640625 0.03125 0  0.65625 0.03125 0  0.671875 0.03125 0  0.6875 0.03125 0  0.703125 0.03125 0  0.71875 0.03125 0  0.734375 0.03125 0  0.75 0.03125 0  0.765625 0.03125 0  0.78125 0.03125 0  0.796875 0.03125 0  0.8125 0.03125 0  0.828125 0.03125 0  0.84375 0.03125 0  0.859375 0.03125 0  0.875 0.03125 0  0.890625 0.03125 0  0.90625 0.03125 0  0.921875 0.03125 0  0.9375 0.03125 0  0.953125 0.03125 0  0.96875 0.03125 0  0.984375 0.03125 0  1 0.03125 0  0 0.046875 0  0.015625 0.046875 0  0.03125 0.046875 0  0.046875 0.046875 0  0.0625 0.046875 0  0.078125 0.046875 0  0.09375 0.046875 0  0.109375 0.046875 0  0.125 0.046875 0  0.140625 0.046875 0  0.15625 0.046875 0  0.171875 0.046875 0  0.1875 0.046875 0  0.203125 0.046875 0  0.21875 0.046875 0  0.234375 0.046875 0  0.25 0.046875 0  0.265625 0.046875 0  0.28125 0.046875 0  0.296875 0.046875 0  0.3125 0.046875 0  0.328125 0.046875 0  0.34375 0.046875 0  0.359375 0.046875 0  0.375 0.046875 0  0.390625 0.046875 0  0.40625 0.046875 0  0.421875 0.046875 0  0.4375 0.046875 0  0.453125 0.046875 0  0.46875 0.046875 0  0.484375 0.046875 0  0.5 0.046875 0  0.515625 0.046875 0  0.53125 0.046875 0  0.546875 0.046875 0  0.5625 0.046875 0  0.578125 0.046875 0  0.59375 0.046875 0  0.609375 0.046875 0  0.625 0.046875 0  0.640625 0.046875 0  0.65625 0.046875 0  0.671875 0.046875 0  0.6875 0.046875 0  0.703125 0.046875 0  0.71875 0.046875 0  0.734375 0.046875 0  0.75 0.046875 0  0.765625 0.046875 0  0.78125 0.046875 0  0.796875 0.046875 0  0.8125 0.046875 0  0.828125 0.046875 0  0.84375 0.046875 0  0.859375 0.046875 0  0.875 0.046875 0  0.890625 0.046875 0  0.90625 0.046875 0  0.921875 0.046875 0  0.9375 0.046875 0  0.953125 0.046875 0  0.96875 0.046875 0  0.984375 0.046875 0  1 0.046875 0  0 0.0625 0  0.015625 0.0625 0  0.03125 0.0625 0  0.046875 0.0625 0  0.0625 0.0625 0  0.078125 0.0625 0  0.09375 0.0625 0  0.109375 0.0625 0  0.125 0.0625 0  0.140625 0.0625 0  0.15625 0.0625 0  0.171875 0.0625 0  0.1875 0.0625 0  0.203125 0.0625 0  0.21875 0.0625 0  0.234375 0.0625 0  0.25 0.0625 0  0.265625 0.0625 0  0.28125 0.0625 0  0.296875 0.0625 0  0.3125 0.0625 0  0.328125 0.0625 0  0.34375 0.0625 0  0.359375 0.0625 0  0.375 0.0625 0  0.390625 0.0625 0  0.40625 0.0625 0  0.421875 0.0625 0  0.4375 0.0625 0  0.453125 0.0625 0  0.46875 0.0625 0  0.484375 0.0625 0  0.5 0.0625 0  0.515625 0.0625 0  0.53125 0.0625 0  0.546875 0.0625 0  0.5625 0.0625 0  0.578125 0.0625 0  0.59375 0.0625 0  0.609375 0.0625 0  0.625 0.0625 0  0.640625 0.0625 0  0.65625 0.0625 0  0.671875 0.0625 0  0.6875 0.0625 0  0.703125 0.0625 0  0.71875 0.0625 0  0.734375 0.0625 0  0.75 0.0625 0  0.765625 0.0625 0  0.78125 0.0625 0  0.796875 0.0625 0  0.8125 0.0625 0  0.828125 0.0625 0  0.84375 0.0625 0  0.859375 0.0625 0  0.875 0.0625 0  0.890625 0.0625 0  0.90625 0.0625 0  0.921875 0.0625 0  0.9375 0.0625 0  0.953125 0.0625 0  0.96875 0.0625 0  0.984375 0.0625 0  1 0.0625 0  0 0.078125 0  0.015625 0.078125 0  0.03125 0.078125 0  0.046875 0.078125 0  0.0625 0.078125 0  0.078125 0.078125 0  0.09375 0.078125 0  0.109375 0.078125 0  0.125 0.078125 0  0.140625 0.078125 0  0.15625 0.078125 0  0.171875 0.078125 0  0.1875 0.078125 0  0.203125 0.078125 0  0.21875 0.078125 0  0.234375 0.078125 0  0.25 0.078125 0  0.265625 0.078125 0  0.28125 0.078125 0  0.296875 0.078125 0  0.3125 0.078125 0  0.328125 0.078125 0  0.34375 0.078125 0  0.359375 0.078125 0  0.375 0.078125 0  0.390625 0.078125 0  0.40625 0.078125 0  0.421875 0.078125 0  0.4375 0.078125 0  0.453125 0.078125 0  0.46875 0.078125 0  0.484375 0.078125 0  0.5 0.078125 0  0.515625 0.078125 0  0.53125 0.078125 0  0.546875 0.078125 0  0.5625 0.078125 0  0.578125 0.078125 0  0.59375 0.078125 0  0.609375 0.078125 0  0.625 0.078125 0  0.640625 0.078125 0  0.65625 0.078125 0  0.671875 0.078125 0  0.6875 0.078125 0  0.703125 0.078125 0  0.71875 0.078125 0  0.734375 0.078125 0  0.75 0.078125 0  0.765625 0.078125 0  0.78125 0.078125 0  0.796875 0.078125 0  0.8125 0.078125 0  0.828125 0.078125 0  0.84375 0.078125 0  0.859375 0.078125 0  0.875 0.078125 0  0.890625 0.078125 0  0.90625 0.078125 0  0.921875 0.078125 0  0.9375 0.078125 0  0.953125 0.078125 0  0.96875 0.078125 0  0.984375 0.078125 0  1 0.078125 0  0 0.09375 0  0.015625 0.09375 0  0.03125 0.09375 0  0.046875 0.09375 0  0.0625 0.09375 0  0.078125 0.09375 0  0.09375 0.09375 0  0.109375 0.09375 0  0.125 0.09375 0  0.140625 0.09375 0  0.15625 0.09375 0  0.171875 0.09375 0  0.1875 0.09375 0  0.203125 0.09375 0  0.21875 0.09375 0  0.234375 0.09375 0  0.25 0.09375 0  0.265625 0.09375 0  0.28125 0.09375 0  0.296875 0.09375 0  0.3125 0.09375 0  0.328125 0.09375 0  0.34375 0.09375 0  0.359375 0.09375 0  0.375 0.09375 0  0.390625 0.09375 0  0.40625 0.09375 0  0.421875 0.09375 0  0.4375 0.09375 0  0.453125 0.09375 0  0.46875 0.09375 0  0.484375 0.09375 0  0.5 0.09375 0  0.515625 0.09375 0  0.53125 0.09375 0  0.546875 0.09375 0  0.5625 0.09375 0  0.578125 0.09375 0  0.59375 0.09375 0  0.609375 0.09375 0  0.625 0.09375 0  0.640625 0.09375 0  0.65625 0.09375 0  0.671875 0.09375 0  0.6875 0.09375 0  0.703125 0.09375 0  0.71875 0.09375 0  0.734375 0.09375 0  0.75 0.09375 0  0.765625 0.09375 0  0.78125 0.09375 0  0.796875 0.09375 0  0.8125 0.09375 0  0.828125 0.09375 0  0.84375 0.09375 0  0.859375 0.09375 0  0.875 0.09375 0  0.890625 0.09375 0  0.90625 0.09375 0  0.921875 0.09375 0  0.9375 0.09375 0  0.953125 0.09375 0  0.96875 0.09375 0  0.984375 0.09375 0  1 0.09375 0  0 0.109375 0  0.015625 0.109375 0  0.03125 0.109375 0  0.046875 0.109375 0  0.0625 0.109375 0  0.078125 0.109375 0  0.09375 0.109375 0  0.109375 0.109375 0  0.125 0.109375 0  0.140625 0.109375 0  0.15625 0.109375 0  0.171875 0.109375 0  0.1875 0.109375 0  0.203125 0.109375 0  0.21875 0.109375 0  0.234375 0.109375 0  0.25 0.109375 0  0.265625 0.109375 0  0.28125 0.109375 0  0.296875 0.109375 0  0.3125 0.109375 0  0.328125 0.109375 0  0.34375 0.109375 0  0.359375 0.109375 0  0.375 0.109375 0  0.390625 0.109375 0  0.40625 0.109375 0  0.421875 0.109375 0  0.4375 0.109375 0  0.453125 0.109375 0  0.46875 0.109375 0  0.484375 0.109375 0  0.5 0.109375 0  0.515625 0.109375 0  0.53125 0.109375 0  0.546875 0.109375 0  0.5625 0.109375 0  0.578125 0.109375 0  0.59375 0.109375 0  0.609375 0.109375 0  0.625 0.109375 0  0.640625 0.109375 0  0.65625 0.109375 0  0.671875 0.109375 0  0.6875 0.109375 0  0.703125 0.109375 0  0.71875 0.109375 0  0.734375 0.109375 0  0.75 0.109375 0  0.765625 0.109375 0  0.78125 0.109375 0  0.796875 0.109375 0  0.8125 0.109375 0  0.828125 0.109375 0  0.84375 0.109375 0  0.859375 0.109375 0  0.875 0.109375 0  0.890625 0.109375 0  0.90625 0.109375 0  0.921875 0.109375 0  0.9375 0.109375 0  0.953125 0.109375 0  0.96875 0.109375 0  0.984375 0.109375 0  1 0.109375 0  0 0.125 0  0.015625 0.125 0  0.03125 0.125 0  0.046875 0.125 0  0.0625 0.125 0  0.078125 0.125 0  0.09375 0.125 0  0.109375 0.125 0  0.125 0.12
[...]
<PointData  Scalars="f_4824"> 
<DataArray  type="Float64"  Name="f_4824"  format="ascii">2.4116173278540412e-13  2.4348148996499998e-13  2.2885510930098203e-13  2.1599546733119539e-13  2.0333661227323547e-13  1.9059141095075711e-13  1.7803478447278895e-13  1.6566264454809899e-13  1.5353418038506849e-13  1.4169901087716868e-13  1.3020015052374245e-13  1.1907777519989524e-13  1.0836687837609864e-13  9.8097406219408805e-14  8.8293831294693512e-14  7.8974657871335446e-14  7.0151808462695155e-14  6.1829868735670260e-14  5.4005522094985454e-14  4.6668000078275328e-14  3.9801929741726250e-14  3.3393924805720671e-14  2.7442848018566652e-14  2.1970711489650149e-14  1.7028105573092486e-14  1.2687676702578923e-14  9.0236163404750832e-15  6.0830534631735120e-15  3.8616045933624883e-15  2.2949190843710558e-15  1.2702498283593696e-15  6.5195998530737941e-16  3.0913289924379939e-16  1.3499050039839957e-16  5.4144640378644853e-17  1.9904147539983137e-17  6.6935001614351764e-18  2.0557628443323872e-18  5.7572577907875552e-19  1.4670681098110996e-19  3.3825878514265077e-20  6.8829091195763172e-21  1.0521986642900128e-21  -9.1320621358786671e-23  -2.9447558745277287e-22  -3.2715756157548711e-22  -3.3191681235421169e-22  -3.3254398633457282e-22  -3.3261875881472346e-22  -3.3262682191915606e-22  -3.3262760820727744e-22  -3.3262767753684537e-22  -3.3262768306319936e-22  -3.3262768346136863e-22  -3.3262768348733225e-22  -3.3262768348884577e-22  -3.3262768348893186e-22  -3.3262768348893402e-22  -3.3262768348893440e-22  -3.3262768348893421e-22  -3.3262768348893426e-22  -3.3262768348893402e-22  -3.3262768348893365e-22  -3.3262768348893346e-22  -3.3262768348893351e-22  5.8437471477119013e-13  6.0222428079384289e-13  5.7126311665132234e-13  5.5084908986999796e-13  5.2733725933081024e-13  5.0355952485278493e-13  4.7931330396161765e-13  4.5469716517014558e-13  4.2987794358119114e-13  4.0497620516289564e-13  3.8012491559718707e-13  3.5545212977271806e-13  3.3108158676785211e-13  3.0713162909760689e-13  2.8371282837504399e-13  2.6092463589863525e-13  2.3884884879741109e-13  2.1753793960243300e-13  1.9699726593961896e-13  1.7716466273867820e-13  1.5789916304857363e-13  1.3899862059641076e-13  1.2026456163818253e-13  1.0161262395502044e-13  8.3191320692657600e-14  6.5442666309734669e-14  4.9045664664262516e-14  3.4738266216519563e-14  2.3086306367137319e-14  1.4306634811595414e-14  8.2240278550532813e-15  4.3663246923950206e-15  2.1334944370090472e-15  9.5665002184816075e-16  3.9271050498132272e-16  1.4730109560393983e-16  5.0402999601846961e-17  1.5712379646609934e-17  4.4572380279385725e-18  1.1493869222510513e-18  2.6905977909622876e-19  5.6971043910626799e-20  1.0726717060378738e-20  1.6029385804960185e-21  -2.5562391933344780e-23  -2.8848729392665265e-22  -3.2688008972212495e-22  -3.3194994454885510e-22  -3.3255532905320603e-22  -3.3262069135297373e-22  -3.3262707194631717e-22  -3.3262763508790781e-22  -3.3262768002267037e-22  -3.3262768326437388e-22  -3.3262768347576604e-22  -3.3262768348823710e-22  -3.3262768348890153e-22  -3.3262768348893280e-22  -3.3262768348893435e-22  -3.3262768348893421e-22  -3.3262768348893412e-22  -3.3262768348893407e-22  -3.3262768348893346e-22  -3.3262768348893374e-22  -3.3262768348893318e-22  3.6933660292149515e-12  3.8781339133834778e-12  3.7624883104650508e-12  3.6938932835388934e-12  3.6047812609215716e-12  3.5094669050910909e-12  3.4056027806879115e-12  3.2943212319620116e-12  3.1762167715580717e-12  3.0520100535255771e-12  2.9224873242793533e-12  2.7884720704099418e-12  2.6508265109300374e-12  2.5104343687173467e-12  2.3681793736072655e-12  2.2249038705500080e-12  2.0813282232090055e-12  1.9379060213363875e-12  1.7946031751041630e-12  1.6506423184315064e-12  1.5043521271966912e-12  1.3533584545172952e-12  1.1953412992818557e-12  1.0293499824834457e-12  8.5724770328654084e-13  6.8450133760267210e-13  5.1960057131707370e-13  3.7201654355722859e-13  2.4946939185050685e-13  1.5575430367684958e-13  9.0087295192851991e-14  4.8073250964627526e-14  2.3588563613881952e-14  1.0613726100497891e-14  4.3694856529309045e-15  1.6428219561974733e-15  5.6323384848214680e-16  1.7586353606725871e-16  4.9956287271900905e-17  1.2898467473638517e-17  3.0245925208775812e-18  6.4354916113599916e-19  1.2399881676167133e-19  2.1435954210589755e-20  3.1217805158833485e-21  1.6402957573375683e-22  -2.6795112316315610e-22  -3.2500108409670640e-22  -3.3181351720669047e-22  -3.3254901281435202e-22  -3.3262080388067819e-22  -3.3262713909963358e-22  -3.3262764451203410e-22  -3.3262768096413085e-22  -3.3262768334101188e-22  -3.3262768348107932e-22  -3.3262768348856360e-22  -3.3262768348891681e-22  -3.3262768348893435e-22  -3.3262768348893421e-22  -3.3262768348893426e-22  -3.3262768348893416e-22  -3.3262768348893365e-22  -3.3262768348893351e-22  -3.3262768348893332e-22  2.5715939935237492e-11  2.7146565531108123e-11  2.6731175464973633e-11  2.6594497959025887e-11  2.6315720118216618e-11  2.5976624331527524e-11  2.5562177695561423e-11  2.5077007026484953e-11  2.4522635508212746e-11  2.3901979593826478e-11  2.3218475286976378e-11  2.2476193020604706e-11  2.1679781970933245e-11  2.0834382328041288e-11  1.9945452529520333e-11  1.9018385226859638e-11  1.8057708042492777e-11  1.7065602178805154e-11  1.6039609488386298e-11  1.4969949661029700e-11  1.3837893372840943e-11  1.2617663306695059e-11  1.1284229805795443e-11  9.8269919289656487e-12  8.2649622488730303e-12  6.6553287620787823e-12  5.0878677265091132e-12  3.6640792738278983e-12  2.4688249415335508e-12  1.5473473705078040e-12  8.9774974408630692e-13  4.8024704024010596e-13  2.3610462341621203e-13  1.0639545849401049e-13  4.3850928492649997e-14  1.6500526751397837e-14  5.6603103976184784e-15  1.7679628842169044e-15  5.0228391886097531e-16  1.2968521838648643e-16  3.0407001654128143e-17  6.4701365269146004e-18  1.2485714758879363e-18  2.1822043757339494e-19  3.4328801013739843e-20  4.6476084934246057e-21  3.1547128929513815e-22  -2.5625925436906352e-22  -3.2448105953872725e-22  -3.3184107639059147e-22  -3.3255894616044854e-22  -3.3262224809222821e-22  -3.3262729459164955e-22  -3.3262765831440524e-22  -3.3262768201447737e-22  -3.3262768341083879e-22  -3.3262768348519036e-22  -3.3262768348877143e-22  -3.3262768348892965e-22  -3.3262768348893416e-22  -3.3262768348893487e-22  -3.3262768348893459e-22  -3.3262768348893445e-22  -3.3262768348893459e-22  -3.3262768348893435e-22  1.6632584651759524e-10  1.7619293147756500e-10  1.7582199090771315e-10  1.7705574366813377e-10  1.7739300923582601e-10  1.7731820617518553e-10  1.7671868190036091e-10  1.7560343116774051e-10  1.7396299736267396e-10  1.7179684697571893e-10  1.6910839116813282e-10  1.6590615101735214e-10  1.6220357710322194e-10  1.5801873981478998e-10  1.5337313850194927e-10  1.4828855083886735e-10  1.4277993799131109e-10  1.3684185382688127e-10  1.3042705792173869e-10  1.2342118443702326e-10  1.1562697311801135e-10  1.0678136474520010e-10  9.6628086107474078e-11  8.5046376810447920e-11  7.2195518962963607e-11  5.8599142337576420e-11  4.5097811900243261e-11  3.2657358584641583e-11  2.2103774137713960e-11  1.3904428451532346e-11  8.0909504203897927e-12  4.3384037780992179e-12  2.1368621496900604e-12  9.6432436880065166e-13  3.9788437064003067e-13  1.4983975489014133e-13  5.1429525894854988e-14  1.6069254063113047e-14  4.5660680095897797e-15  1.1789238390334408e-15  2.7638487457811800e-16  5.8797832786568303e-17  1.1344706417896645e-17  1.9841506822467675e-18  3.1424104951566084e-19  4.4841475832743644e-20  5.5426602343998029e-21  3.5926740988851822e-22  -2.5886471182203042e-22  -3.2550975430212603e-22  -3.3200605818950936e-22  -3.3257855685494727e-22  -3.3262417046238252e-22  -3.3262745619246037e-22  -3.3262767018352753e-22  -3.3262768278429926e-22  -3.3262768345517401e-22  -3.3262768348747227e-22  -3.3262768348887859e-22  -3.3262768348893318e-22  -3.3262768348893543e-22  -3.3262768348893520e-22  -3.3262768348893501e-22  -3.3262768348893487e-22  -3.3262768348893567e-22  9.8659506009509331e-10  1.0484263332334970e-09  1.0594596202506437e-09  1.0790824201279284e-09  1.0938557276307386e-09  1.1064168845315605e-09  1.1159877610176366e-09  1.1225126674948467e-09  1.1258129977885241e-09  1.1257593572501062e-09  1.1222418949690555e-09  1.1151793400780925e-09  1.1045196579166012e-09  1.0902395191960790e-09  1.0723365764703851e-09  1.0508053170618948e-09  1.0255793689438655e-09  9.9641818847980950e-10  9.6272635232449903e-10  9.2333720248424731e-10  8.7637483079063697e-10  8.1939293875449695e-10  7.4998608523620023e-10  6.6688534585677941e-10  5.7120317409313329e-10  4.6718491734913660e-10  3.6185337517017058e-10  2.6342324538576590e-10  1.7906698775967537e-10  1.1303747017844399e-10  6.5961644633711252e-11  3.5448447763766051e-11  1.7490954715154179e-11  7.9042088535914773e-12  3.2647237468577432e-12  1.2304081495482792e-12  4.2253595485912359e-13  1.3206485284159875e-13  3.7531703040287317e-14  9.6903810316835744e-15  2.2715023002885664e-15  4.8312364309891403e-16  9.3187233058304864e-17  1.6293554314630361e-17  2.5813323562168622e-18  3.7021900174554468e-19  4.7835244729183650e-20  5.3366891346902764e-21  2.7144504764235107e-22  -2.7436805731169733e-22  -3.2754242595621947e-22  -3.3222600163543264e-22  -3.3259897293281441e-22  -3.3262582669389213e-22  -3.3262757483847468e-22  -3.3262767773699853e-22  -3.3262768321341000e-22  -3.3262768347699829e-22  -3.3262768348847074e-22  -3.3262768348891752e-22  -3.3262768348893590e-22  -3.3262768348893487e-22  -3.3262768348893478e-22  -3.3262768348893412e-22  -3.3262768348893341e-22  5.3712631232324727e-09  5.7246761475989347e-09  5.8540064865823060e-09  6.0260737295801011e-09  6.1760957809743133e-09  6.3170300376114782e-09  6.4442069744528307e-09  6.5568320779379142e-09  6.6533276415913578e-09  6.7323387101766566e-09  6.7925545661528797e-09  6.8327698580483980e-09  6.8518936064556855e-09  6.8489496137188776e-09  6.8230242446302491e-09  6.7730898755659129e-09  6.6975712426512121e-09  6.5934822447850255e-09  6.4550372759179310e-09  6.2719732636858327e-09  6.0284516211367670e-09  5.7040688285188513e-09  5.2785026188024489e-09  4.7399372140670364e-09  4.0947537348530538e-09  3.3735809821283573e-09  2.6289499349277486e-09  1.9234793284414976e-09  1.3128999069483575e-09  8.3153752976970523e-10  4.8653125809600167e-10  2.6202378879629124e-10  1.2950465181175121e-10  5.8599668833967990e-11  2.4227628295190585e-11  9.1374598525536366e-12  3.1394481209002167e-12  9.8153605772359199e-13  2.7898117500927767e-13  7.2030089431473152e-14  1.6882275979506274e-14  3.5898610812163211e-15  6.9221752763280078e-16  1.2098893892223746e-16  1.9161527051190366e-17  2.7487425500066692e-18  3.5684624394213474e-19  4.1686307267546507e-20  4.1423410829691205e-21  9.8752046263277981e-23  -2.9499155818185856e-22  -3.2965611243816044e-22  -3.3241537259693823e-22  -3.3261395763865374e-22  -3.3262688057589257e-22  -3.3262764099332972e-22  -3.3262768145386455e-22  -3.3262768340080735e-22  -3.3262768348546834e-22  -3.3262768348881741e-22  -3.3262768348893158e-22  -3.3262768348893553e-22  -3.3262768348893534e-22  -3.3262768348893463e-22  -3.3262768348893289e-22  2.6886698742615236e-08  2.8733486678823645e-08  2.9711462232361693e-08  3.0887466802686961e-08  3.1982905266098394e-08  3.3055121167520018e-08  3.4079882840968152e-08  3.5051541512443053e-08  3.5959940258429759e-08  3.6795693338415886e-08  3.7549172305049721e-08  3.8210849971467519e-08  3.8771337535591984e-08  3.9221365664734117e-08  3.9551411719487537e-08  3.9750472600315497e-08  3.9803054120375187e-08  3.9683160521009731e-08  3.9344580871640715e-08  3.8709057982999967e-08  3.7658328510542965e-08  3.6040671300901668e-08  3.3702740516668595e-08  3.0548041104916935e-08  2.6605034258215175e-08  2.2071062157077631e-08  1.7298798590167605e-08  1.2716918635709557e-08  8.7137785564317090e-09  5.5362555821203706e-09  3.2474034620684461e-09  1.7524053516271531e-09  8.6748548940683575e-10  3.9300701510104441e-10  1.6263517858086925e-10  6.1378733815629059e-11  2.1098018275319793e-11  6.5979873541728192e-12  1.8755548762733185e-12  4.8424100521040809e-13  1.1348110177744485e-13  2.4125460045075093e-14  4.6506546269438147e-15  8.1258047317676870e-16  1.2864297127234292e-16  1.8447842663808276e-17  2.3955347551017257e-18  2.8139551592378882e-19  2.9658022062367300e-20  2.5572056657187849e-21  -8.0601748623986332e-23  -3.1273621568926208e-22  -3.3120696143606384e-22  -3.3253586077986306e-22  -3.3262231350376349e-22  -3.3262739932732536e-22  -3.3262766988338065e-22  -3.3262768289950138e-22  -3.3262768346584336e-22  -3.3262768348811574e-22  -3.3262768348891272e-22  -3.3262768348893600e-22  -3.3262768348893656e-22  -3.3262768348893482e-22  -3.3262768348893327e-22  1.2395933774526857e-07  1.3279995615650953e-07  1.3874814691346579e-07  1.4555126321049079e-07  1.5215088317713626e-07  1.5877501185858127e-07  1.6531523926715648e-07  1.7174256248064139e-07  1.7800495880816839e-07  1.8405209049009228e-07  1.8983001289660562e-07  1.9528277754938419e-07  2.0035237138897028e-07  2.0497829382851493e-07  2.0909494093022781e-07  2.1262364444726256e-07  2.1545349129432304e-07  2.1740317329260925e-07  2.1815922012234273e-07  2.1720021904600600e-07  2.1374429530808179e-07  2.0678672494048841e-07  1.9529638471283145e-07  1.7858184567209716e-07  1.5672321505642061e-07  1.3085926765807264e-07  1.0311950902732512e-07  7.6143860998872965e-08  5.2363674320968882e-08  3.3366351365500433e-08  1.9617610262974860e-08  1.0606019249332577e-08  5.2579194721039830e-09  2.3847370229381903e-09  9.8769112724247369e-10  3.7298224580540980e-10  1.2825915425830288e-10  4.0119990883501014e-11  1.1405630124529977e-11  2.9446838489393991e-12  6.8999276252154199e-13  1.4665765766764612e-13  2.8263306836549313e-14  4.9366623331707022e-15  7.8126153748976435e-16  1.1199389390770800e-16  1.4538622667937868e-17  1.7086160188043484e-18  1.8151907148970470e-19  1.7183781006859457e-20  1.1944797523100075e-21  -2.1213592287439693e-22  -3.2402404393263899e-22  -3.3207174835010297e-22  -3.3259517715710418e-22  -3.3262596359324946e-22  -3.3262760114690121e-22  -3.3262767992207862e-22  -3.3262768334904958e-22  -3.3262768348400560e-22  -3.3262768348877825e-22  -3.3262768348893943e-22  -3.3262768348894202e-22  -3.3262768348894164e-22  -3.3262768348894122e-22  5.2725018003286194e-07  5.6608960726795089e-07  5.9710713764026513e-07  6.3155884859515831e-07  6.6596021485938284e-07  7.0111998439028008e-07  7.3662462965710555e-07  7.7236097933253478e-07  8.0811264419097455e-07  8.4366263092619022e-07  8.7876836154538033e-07  9.1316786588705155e-07  9.4657773154941603e-07  9.7868876457388552e-07  1.0091491704909245e-06  1.0375173013819083e-06  1.0631503918288459e-06  1.0849846581079209e-06  1.1011790579161175e-06  1.1086751548478700e-06  1.1028826242469151e-06  1.0778701482217348e-06  1.0274572456464294e-06  9.4728120216123020e-07  8.3726640579540006e-07  7.0331315918088292e-07  5.5700639459341511e-07  4.1299154008703403e-07  2.8496401783460490e-07  1.8207126374122232e-07  1.0727960165086249e-07  5.8098758841069668e-08  2.8840943071875373e-08  1.3094276610931802e-08  5.4274255834523681e-09  2.0506744545069718e-09  7.0542651868903259e-10  2.2070423578198845e-10  6.2747722682683178e-11  1.6199369547018207e-11  3.7952913976586460e-12  8.0651894326069316e-13  1.5538788337046376e-13  2.7132731903973048e-14  4.2924974872000667e-15  6.1511328774290423e-16  7.9824302060572217e-17  9.3791514323667714e-18  9.9741237837344802e-19  9.5742064049891220e-20  8.0408844893881761e-21  3.2788998950179588e-22  -2.8547403456781061e-22  -3.2958131861407734e-22  -3.3244958078791046e-22  -3.3261826088217311e-22  -3.3262723238719873e-22  -3.3262766394617183e-22  -3.3262768272293987e-22  -3.3262768346176802e-22  -3.3262768348807920e-22  -3.3262768348892932e-22  -3.3262768348895316e-22  -3.3262768348895476e-22  -3.3262768348895499e-22  2.0721597909109431e-06  2.2290204113805175e-06  2.3716410675135187e-06  2.5270600665447994e-06  2.6857567402635166e-06  2.8502485755200388e-06  3.0192298407675364e-06  3.1923852133571965e-06  3.3689973400466812e-06  3.5483217944837135e-06  3.7294819980509886e-06  3.9114888341148048e-06  4.0932232120942095e-06  4.2734051689264725e-06  4.4504981686558205e-06  4.6224560555535485e-06  4.7861391357914278e-06  4.9361671366759489e-06  5.0630600201908942e-06  5.1509247856780606e-06  5.1757519970249620e-06  5.1062695951380762e-06  4.9094096503020249e-06  4.5608324902950058e-06  4.0576578485571924e-06  3.4273987357674548e-06  2.7269246548374140e-06  2.0295146708370539e-06  1.4046607360978437e-06  8.9969231245952384e-07  5.3115903503190344e-07  2.8810381628936468e-07  1.4319119466442230e-07  6.5071026346300609e-08  2.6989453078211780e-08  1.0202401460212594e-08  3.5106560971773594e-09  1.0985381990886631e-09  3.1233299705676117e-10  8.0628740037690543e-11  1.8887448794791343e-11  4.0128327044042427e-12  7.7293066620989636e-13  1.3492379545075974e-13  2.1338656053799701e-14  3.0568185674262294e-15  3.9655945640356556e-16  4.6581022147474810e-17  4.9532772340766235e-18  4.7652754108869249e-19  4.1218508603560660e-20  2.9443124343283877e-21  -9.8730152273465447e-23  -3.1751862250843748e-22  -3.3174441756111748e-22  -3.3258095537058956e-22  -3.3262544635515713e-22  -3.3262758656691347e-22  -3.3262767968886195e-22  -3.3262768335418617e-22  -3.3262768348463124e-22  -3.3262768348884826e-22  -3.3262768348896717e-22  -3.3262768348897277e-22  -3.3262768348897352e-22  7.5358805794047607e-06  8.1191522880719451e-06  8.7062398979357240e-06  9.3373930185997650e-06  9.9936210887126382e-06  1.0681539786031243e-05  1.1398013880424349e-05  1.2142653613338608e-05  1.2913733617672151e-05  1.3709374464204443e-05  1.4527155595595785e-05  1.5364164139221800e-05  1.6216894141726743e-05  1.7081074637801485e-05  1.7951192680594575e-05  1.8819279731224557e-05  1.9672150752045542e-05  2.0486003702511195e-05  2.1217656311881825e-05  2.1793565358445832e-05  2.2101504977561781e-05  2.1993923152487211e-05  2.1312617018483024e-05  1.9937069623744608e-05  1.7843632561457978e-05  1.5148028401970159e-05  1.2102502293316622e-05  9.0380875749057475e-06  6.2727367500777998e-06  4.0266527611264027e-06  2.3814505451994827e-06  1.2935049583044437e-06  6.4357639707168122e-07  2.9269900945839811e-07  1.2147336549301134e-07  4.5936901870804783e-08  1.5810723092664686e-08  4.9479539286538425e-09  1.4067855886010588e-09  3.6312866089334880e-10  8.5049799723980758e-11  1.8065753546667307e-11  3.4788254527085313e-12  6.0709346724512590e-13  9.5984716717259846e-14  1.3745817712650953e-14  1.7826965942840517e-15  2.0934089341974501e-16  2.2255680402708597e-17  2.1416278431713960e-18  1.8626771214943935e-19  1.4381123540721882e-20  7.1745570258737705e-22  -2.6480139738778367e-22  -3.2866276169977738e-22  -3.3241792227571470e-22  -3.3261764049416237e-22  -3.3262724833192233e-22  -3.3262766642568085e-22  -3.3262768288346162e-22  -3.3262768346954528e-22  -3.3262768348842762e-22  -3.3262768348898020e-22  -3.3262768348899623e-22  -3.3262768348899849e-22  2.5395116693739649e-05  2.7394755972938013e-05  2.9578625004627670e-05  3.1901918550753883e-05  3.4354172484185934e-05  3.6948490410204463e-05  3.9681065150766626e-05  4.2553846099651629e-05  4.5565148636817903e-05  4.8712710931150528e-05  5.1992478320199400e-05  5.5398683315127443e-05  5.8923390996444380e-05  6.2555710760609534e-05  6.6279712734856059e-05  7.0069228562214913e-05  7.3876114574107697e-05  7.7607337021174102e-05  8.1087716649696514e-05  8.4012914596139649e-05  8.5912849343954827e-05  8.6163257552154633e-05  8.4086188545793894e-05  7.9150344945546911e-05  7.1219184979153316e-05  6.0732788069803114e-05  4.8703315811471386e-05  3.6482114067622427e-05  2.5382076380916700e-05  1.6325530846894105e-05  9.6702821663580487e-06  5.2588541594057508e-06  2.6189316626729807e-06  1.1919065033865947e-06  4.9489320841237804e-07  1.8720965439794916e-07  6.4445540009358211e-08  2.0169266047951140e-08  5.7342070341705830e-09  1.4799692719359625e-09  3.4656531528530208e-10  7.3598165353