<?xml version="1.0"?>
<VTKFile type="UnstructuredGrid"  version="0.1"  >
<UnstructuredGrid>
<Piece  NumberOfPoints="4225" NumberOfCells="8192">
<Points>
<DataArray  type="Float64"  NumberOfComponents="3"  format="ascii">0 0 0  0.015625 0 0  0.03125 0 0  0.046875 0 0  0.0625 0 0  0.078125 0 0  0.09375 0 0  0.109375 0 0  0.125 0 0  0.140625 0 0  0.15625 0 0  0.171875 0 0  0.1875 0 0  0.203125 0 0  0.21875 0 0  0.234375 0 0  0.25 0 0  0.265625 0 0  0.28125 0 0  0.296875 0 0  0.3125 0 0  0.328125 0 0  0.34375 0 0  0.359375 0 0  0.375 0 0  0.390625 0 0  0.40625 0 0  0.421875 0 0  0.4375 0 0  0.453125 0 0  0.46875 0 0  0.484375 0 0  0.5 0 0  0.515625 0 0  0.53125 0 0  0.546875 0 0  0.5625 0 0  0.578125 0 0  0.59375 0 0  0.609375 0 0  0.625 0 0  0.640625 0 0  0.65625 0 0  0.671875 0 0  0.6875 0 0  0.703125 0 0  0.71875 0 0  0.734375 0 0  0.75 0 0  0.765625 0 0  0.78125 0 0  0.796875 0 0  0.8125 0 0  0.828125 0 0  0.84375 0 0  0.859375 0 0  0.875 0 0  0.890625 0 0  0.90625 0 0  0.921875 0 0  0.9375 0 0  0.953125 0 0  0.96875 0 0  0.984375 0 0  1 0 0  0 0.015625 0  0.015625 0.015625 0  0.03125 0.015625 0  0.046875 0.015625 0  0.0625 0.015625 0  0.078125 0.015625 0  0.09375 0.015625 0  0.109375 0.015625 0  0.125 0.015625 0  0.140625 0.015625 0  0.15625 0.015625 0  0.171875 0.015625 0  0.1875 0.015625 0  0.203125 0.015625 0  0.21875 0.015625 0  0.234375 0.015625 0  0.25 0.015625 0  0.265625 0.015625 0  0.28125 0.015625 0  0.296875 0.015625 0  0.3125 0.015625 0  0.328125 0.015625 0  0.34375 0.015625 0  0.359375 0.015625 0  0.375 0.015625 0  0.390625 0.015625 0  0.40625 0.015625 0  0.421875 0.015625 0  0.4375 0.015625 0  0.453125 0.015625 0  0.46875 0.015625 0  0.484375 0.015625 0  0.5 0.015625 0  0.515625 0.015625 0  0.53125 0.015625 0  0.546875 0.015625 0  0.5625 0.015625 0  0.578125 0.015625 0  0.59375 0.015625 0  0.609375 0.015625 0  0.625 0.015625 0  0.640625 0.015625 0  0.65625 0.015625 0  0.671875 0.015625 0  0.6875 0.015625 0  0.703125 0.015625 0  0.71875 0.015625 0  0.734375 0.015625 0  0.75 0.015625 0  0.765625 0.015625 0  0.78125 0.015625 0  0.796875 0.015625 0  0.8125 0.015625 0  0.828125 0.015625 0  0.84375 0.015625 0  0.859375 0.015625 0  0.875 0.015625 0  0.890625 0.015625 0  0.90625 0.015625 0  0.921875 0.015625 0  0.9375 0.015625 0  0.953125 0.015625 0  0.96875 0.015625 0  0.984375 0.015625 0  1 0.015625 0  0 0.03125 0  0.015625 0.03125 0  0.03125 0.03125 0  0.046875 0.03125 0  0.0625 0.03125 0  0.078125 0.03125 0  0.09375 0.03125 0  0.109375 0.03125 0  0.125 0.03125 0  0.140625 0.03125 0  0.15625 0.03125 0  0.171875 0.03125 0  0.1875 0.03125 0  0.203125 0.03125 0  0.21875 0.03125 0  0.234375 0.03125 0  0.25 0.03125 0  0.265625 0.03125 0  0.28125 0.03125 0  0.296875 0.03125 0  0.3125 0.03125 0  0.328125 0.03125 0  0.34375 0.03125 0  0.359375 0.03125 0  0.375 0.03125 0  0.390625 0.03125 0  0.40625 0.03125 0  0.421875 0.03125 0  0.4375 0.03125 0  0.453125 0.03125 0  0.46875 0.03125 0  0.484375 0.03125 0  0.5 0.03125 0  0.515625 0.03125 0  0.53125 0.03125 0  0.546875 0.03125 0  0.5625 0.03125 0  0.578125 0.03125 0  0.59375 0.03125 0  0.609375 0.03125 0  0.625 0.03125 0  0.640625 0.03125 0  0.65625 0.03125 0  0.671875 0.03125 0  0.6875 0.03125 0  0.703125 0.03125 0  0.71875 0.03125 0  0.734375 0.03125 0  0.75 0.03125 0  0.765625 0.03125 0  0.78125 0.03125 0  0.796875 0.03125 0  0.8125 0.03125 0  0.828125 0.03125 0  0.84375 0.03125 0  0.859375 0.03125 0  0.875 0.03125 0  0.890625 0.03125 0  0.90625 0.03125 0  0.921875 0.03125 0  0.9375 0.03125 0  0.953125 0.03125 0  0.96875 0.03125 0  0.984375 0.03125 0  1 0.03125 0  0 0.046875 0  0.015625 0.046875 0  0.03125 0.046875 0  0.046875 0.046875 0  0.0625 0.046875 0  0.078125 0.046875 0  0.09375 0.046875 0  0.109375 0.046875 0  0.125 0.046875 0  0.140625 0.046875 0  0.15625 0.046875 0  0.171875 0.046875 0  0.1875 0.046875 0  0.203125 0.046875 0  0.21875 0.046875 0  0.234375 0.046875 0  0.25 0.046875 0  0.265625 0.046875 0  0.28125 0.046875 0  0.296875 0.046875 0  0.3125 0.046875 0  0.328125 0.046875 0  0.34375 0.046875 0  0.359375 0.046875 0  0.375 0.046875 0  0.390625 0.046875 0  0.40625 0.046875 0  0.421875 0.046875 0  0.4375 0.046875 0  0.453125 0.046875 0  0.46875 0.046875 0  0.484375 0.046875 0  0.5 0.046875 0  0.515625 0.046875 0  0.53125 0.046875 0  0.546875 0.046875 0  0.5625 0.046875 0  0.578125 0.046875 0  0.59375 0.046875 0  0.609375 0.046875 0  0.625 0.046875 0  0.640625 0.046875 0  0.65625 0.046875 0  0.671875 0.046875 0  0.6875 0.046875 0  0.703125 0.046875 0  0.71875 0.046875 0  0.734375 0.046875 0  0.75 0.046875 0  0.765625 0.046875 0  0.78125 0.046875 0  0.796875 0.046875 0  0.8125 0.046875 0  0.828125 0.046875 0  0.84375 0.046875 0  0.859375 0.046875 0  0.875 0.046875 0  0.890625 0.046875 0  0.90625 0.046875 0  0.921875 0.046875 0  0.9375 0.046875 0  0.953125 0.046875 0  0.96875 0.046875 0  0.984375 0.046875 0  1 0.046875 0  0 0.0625 0  0.015625 0.0625 0  0.03125 0.0625 0  0.046875 0.0625 0  0.0625 0.0625 0  0.078125 0.0625 0  0.09375 0.0625 0  0.109375 0.0625 0  0.125 0.0625 0  0.140625 0.0625 0  0.15625 0.0625 0  0.171875 0.0625 0  0.1875 0.0625 0  0.203125 0.0625 0  0.21875 0.0625 0  0.234375 0.0625 0  0.25 0.0625 0  0.265625 0.0625 0  0.28125 0.0625 0  0.296875 0.0625 0  0.3125 0.0625 0  0.328125 0.0625 0  0.34375 0.0625 0  0.359375 0.0625 0  0.375 0.0625 0  0.390625 0.0625 0  0.40625 0.0625 0  0.421875 0.0625 0  0.4375 0.0625 0  0.453125 0.0625 0  0.46875 0.0625 0  0.484375 0.0625 0  0.5 0.0625 0  0.515625 0.0625 0  0.53125 0.0625 0  0.546875 0.0625 0  0.5625 0.0625 0  0.578125 0.0625 0  0.59375 0.0625 0  0.609375 0.0625 0  0.625 0.0625 0  0.640625 0.0625 0  0.65625 0.0625 0  0.671875 0.0625 0  0.6875 0.0625 0  0.703125 0.0625 0  0.71875 0.0625 0  0.734375 0.0625 0  0.75 0.0625 0  0.765625 0.0625 0  0.78125 0.0625 0  0.796875 0.0625 0  0.8125 0.0625 0  0.828125 0.0625 0  0.84375 0.0625 0  0.859375 0.0625 0  0.875 0.0625 0  0.890625 0.0625 0  0.90625 0.0625 0  0.921875 0.0625 0  0.9375 0.0625 0  0.953125 0.0625 0  0.96875 0.0625 0  0.984375 0.0625 0  1 0.0625 0  0 0.078125 0  0.015625 0.078125 0  0.03125 0.078125 0  0.046875 0.078125 0  0.0625 0.078125 0  0.078125 0.078125 0  0.09375 0.078125 0  0.109375 0.078125 0  0.125 0.078125 0  0.140625 0.078125 0  0.15625 0.078125 0  0.171875 0.078125 0  0.1875 0.078125 0  0.203125 0.078125 0  0.21875 0.078125 0  0.234375 0.078125 0  0.25 0.078125 0  0.265625 0.078125 0  0.28125 0.078125 0  0.296875 0.078125 0  0.3125 0.078125 0  0.328125 0.078125 0  0.34375 0.078125 0  0.359375 0.078125 0  0.375 0.078125 0  0.390625 0.078125 0  0.40625 0.078125 0  0.421875 0.078125 0  0.4375 0.078125 0  0.453125 0.078125 0  0.46875 0.078125 0  0.484375 0.078125 0  0.5 0.078125 0  0.515625 0.078125 0  0.53125 0.078125 0  0.546875 0.078125 0  0.5625 0.078125 0  0.578125 0.078125 0  0.59375 0.078125 0  0.609375 0.078125 0  0.625 0.078125 0  0.640625 0.078125 0  0.65625 0.078125 0  0.671875 0.078125 0  0.6875 0.078125 0  0.703125 0.078125 0  0.71875 0.078125 0  0.734375 0.078125 0  0.75 0.078125 0  0.765625 0.078125 0  0.78125 0.078125 0  0.796875 0.078125 0  0.8125 0.078125 0  0.828125 0.078125 0  0.84375 0.078125 0  0.859375 0.078125 0  0.875 0.078125 0  0.890625 0.078125 0  0.90625 0.078125 0  0.921875 0.078125 0  0.9375 0.078125 0  0.953125 0.078125 0  0.96875 0.078125 0  0.984375 0.078125 0  1 0.078125 0  0 0.09375 0  0.015625 0.09375 0  0.03125 0.09375 0  0.046875 0.09375 0  0.0625 0.09375 0  0.078125 0.09375 0  0.09375 0.09375 0  0.109375 0.09375 0  0.125 0.09375 0  0.140625 0.09375 0  0.15625 0.09375 0  0.171875 0.09375 0  0.1875 0.09375 0  0.203125 0.09375 0  0.21875 0.09375 0  0.234375 0.09375 0  0.25 0.09375 0  0.265625 0.09375 0  0.28125 0.09375 0  0.296875 0.09375 0  0.3125 0.09375 0  0.328125 0.09375 0  0.34375 0.09375 0  0.359375 0.09375 0  0.375 0.09375 0  0.390625 0.09375 0  0.40625 0.09375 0  0.421875 0.09375 0  0.4375 0.09375 0  0.453125 0.09375 0  0.46875 0.09375 0  0.484375 0.09375 0  0.5 0.09375 0  0.515625 0.09375 0  0.53125 0.09375 0  0.546875 0.09375 0  0.5625 0.09375 0  0.578125 0.09375 0  0.59375 0.09375 0  0.609375 0.09375 0  0.625 0.09375 0  0.640625 0.09375 0  0.65625 0.09375 0  0.671875 0.09375 0  0.6875 0.09375 0  0.703125 0.09375 0  0.71875 0.09375 0  0.734375 0.09375 0  0.75 0.09375 0  0.765625 0.09375 0  0.78125 0.09375 0  0.796875 0.09375 0  0.8125 0.09375 0  0.828125 0.09375 0  0.84375 0.09375 0  0.859375 0.09375 0  0.875 0.09375 0  0.890625 0.09375 0  0.90625 0.09375 0  0.921875 0.09375 0  0.9375 0.09375 0  0.953125 0.09375 0  0.96875 0.09375 0  0.984375 0.09375 0  1 0.09375 0  0 0.109375 0  0.015625 0.109375 0  0.03125 0.109375 0  0.046875 0.109375 0  0.0625 0.109375 0  0.078125 0.109375 0  0.09375 0.109375 0  0.109375 0.109375 0  0.125 0.109375 0  0.140625 0.109375 0  0.15625 0.109375 0  0.171875 0.109375 0  0.1875 0.109375 0  0.203125 0.109375 0  0.21875 0.109375 0  0.234375 0.109375 0  0.25 0.109375 0  0.265625 0.109375 0  0.28125 0.109375 0  0.296875 0.109375 0  0.3125 0.109375 0  0.328125 0.109375 0  0.34375 0.109375 0  0.359375 0.109375 0  0.375 0.109375 0  0.390625 0.109375 0  0.40625 0.109375 0  0.421875 0.109375 0  0.4375 0.109375 0  0.453125 0.109375 0  0.46875 0.109375 0  0.484375 0.109375 0  0.5 0.109375 0  0.515625 0.109375 0  0.53125 0.109375 0  0.546875 0.109375 0  0.5625 0.109375 0  0.578125 0.109375 0  0.59375 0.109375 0  0.609375 0.109375 0  0.625 0.109375 0  0.640625 0.109375 0  0.65625 0.109375 0  0.671875 0.109375 0  0.6875 0.109375 0  0.703125 0.109375 0  0.71875 0.109375 0  0.734375 0.109375 0  0.75 0.109375 0  0.765625 0.109375 0  0.78125 0.109375 0  0.796875 0.109375 0  0.8125 0.109375 0  0.828125 0.109375 0  0.84375 0.109375 0  0.859375 0.109375 0  0.875 0.109375 0  0.890625 0.109375 0  0.90625 0.109375 0  0.921875 0.109375 0  0.9375 0.109375 0  0.953125 0.109375 0  0.96875 0.109375 0  0.984375 0.109375 0  1 0.109375 0  0 0.125 0  0.015625 0.125 0  0.03125 0.125 0  0.046875 0.125 0  0.0625 0.125 0  0.078125 0.125 0  0.09375 0.125 0  0.109375 0.125 0  0.125 0.12
[...]
<PointData  Scalars="f_4824"> 
<DataArray  type="Float64"  Name="f_4824"  format="ascii">1.5280460442564796e-18  1.5280366454471893e-18  1.5279927376244452e-18  1.5279539113877300e-18  1.5279764212904660e-18  1.5279769177314067e-18  1.5278988959650268e-18  1.5277970441250145e-18  1.5274545981468325e-18  1.5256445876810915e-18  1.5176678451728548e-18  1.4855523728950510e-18  1.3672996541865909e-18  9.7153656026657739e-19  -2.3041312298348119e-19  -3.5378275068008202e-18  -1.1771651257583847e-17  -3.0290619621485932e-17  -6.7866455069531141e-17  -1.3654862596863086e-16  -2.4946174220918036e-16  -4.1613544319018479e-16  -6.3661019727858012e-16  -8.9734089233772435e-16  -1.1721491166539866e-15  -1.4291476643611045e-15  -1.6407877708942352e-15  -1.7918748805651581e-15  -1.8816445772642977e-15  -1.9198925497876691e-15  -1.9205204646724230e-15  -1.8963056510228187e-15  -1.8566468684051166e-15  -1.8077134823036649e-15  -1.7534961260991991e-15  -1.6966913396418569e-15  -1.6391533847464491e-15  -1.5820908566378463e-15  -1.5262064835414897e-15  -1.4718471149645849e-15  -1.4191446323248823e-15  -1.3681202462574713e-15  -1.3187466583386794e-15  -1.2709788108463188e-15  -1.2247667847141460e-15  -1.1800604053324386e-15  -1.1368107196900908e-15  -1.0949702242373495e-15  -1.0544931769396235e-15  -1.0153349668503452e-15  -9.7745338227758374e-16  -9.4080564005576753e-16  -9.0535479338608223e-16  -8.7105540082215117e-16  -8.3788503380861217e-16  -8.0577460520322628e-16  -7.7476168409122768e-16  -7.4465349206260024e-16  -7.1576476591405426e-16  -6.8730930137508903e-16  -6.6088312874354360e-16  -6.3299513209344852e-16  -6.1085584268833264e-16  -5.8009216293379849e-16  -5.6543991497092277e-16  1.5280345956216874e-18  1.5280188478622867e-18  1.5279980238617386e-18  1.5279819631363381e-18  1.5279592891613986e-18  1.5279307895236281e-18  1.5279286960884756e-18  1.5279418638042572e-18  1.5280458167095430e-18  1.5289491302474193e-18  1.5342694649594579e-18  1.5609173184783795e-18  1.6797701164781395e-18  2.1525307582879825e-18  3.8329998891492282e-18  9.1777871168054825e-18  2.4391843817080135e-17  6.3129013258717367e-17  1.5123497252171955e-16  3.2983439995469436e-16  6.5131985775537600e-16  1.1621869455775099e-15  1.8719142064307315e-15  2.7189055066654892e-15  3.5561749659172806e-15  4.1784828305045305e-15  4.3918710360035446e-15  4.0959010769999091e-15  3.3325339234620528e-15  2.2710975268585636e-15  1.1377449150668517e-15  1.3055551664297460e-16  -6.3608463080332411e-16  -1.1394958853555797e-15  -1.4207023858459399e-15  -1.5458030953139355e-15  -1.5768180110159694e-15  -1.5586025517337467e-15  -1.5181240112921628e-15  -1.4693027416735370e-15  -1.4184092694209594e-15  -1.3679230575600796e-15  -1.3186956374851374e-15  -1.2709641643953323e-15  -1.2247605106739966e-15  -1.1800559892752924e-15  -1.1368067616063888e-15  -1.0949664691172932e-15  -1.0544895270990251e-15  -1.0153315082870881e-15  -9.7744989142389034e-16  -9.4080259469088895e-16  -9.0535112409021994e-16  -8.7105345575985498e-16  -8.3787962442126106e-16  -8.0577713496756014e-16  -7.7474712125353286e-16  -7.4467654454943444e-16  -7.1570644221630846e-16  -6.8742649007824963e-16  -6.6062684631725574e-16  -6.3351757414624190e-16  -6.0979416854455334e-16  -5.8183722813979559e-16  -5.6382251442806007e-16  1.5279881314445372e-18  1.5279995283459784e-18  1.5280155536524722e-18  1.5279862251020644e-18  1.5279146659890730e-18  1.5279439543212849e-18  1.5280815834822795e-18  1.5285104172018925e-18  1.5317654394298712e-18  1.5512697289402601e-18  1.6529190758329633e-18  2.1322677688214968e-18  4.1722337326933964e-18  1.1995709283280280e-17  3.9024316677882571e-17  1.2308229398420262e-16  3.5817453275470108e-16  9.4870170192965110e-16  2.2786335426926993e-15  4.9575918514582471e-15  9.7678365876939959e-15  1.7427817602304098e-14  2.8159593021301984e-14  4.1208112598097584e-14  5.4619542364124347e-14  6.5576858431170867e-14  7.1317469697257343e-14  7.0248672892270980e-14  6.2649978582246301e-14  5.0541902013240346e-14  3.6805886908612836e-14  2.4076978089769157e-14  1.3981920012907063e-14  6.9814856605718876e-15  2.6894838095326703e-15  3.5174589271652955e-16  -7.7652532110985982e-16  -1.2497238476425626e-15  -1.4088052082191132e-15  -1.4337402732133145e-15  -1.4077465954641384e-15  -1.3649665388446073e-15  -1.3179335309136215e-15  -1.2707791565571717e-15  -1.2247162045148007e-15  -1.1800436470880954e-15  -1.1368012636100719e-15  -1.0949624262823369e-15  -1.0544858440625069e-15  -1.0153280088418668e-15  -9.7744647226833816e-16  -9.4079938720920865e-16  -9.0534781258208256e-16  -8.7105071909569876e-16  -8.3787596262592109e-16  -8.0577581165343453e-16  -7.7474103262898956e-16  -7.4468101751499459e-16  -7.1568867597105695e-16  -6.8745571425280763e-16  -6.6055979432047035e-16  -6.3364031549872538e-16  -6.0956769344199427e-16  -5.8206706260286425e-16  -5.6449890297464380e-16  1.5279613543759784e-18  1.5279894460518636e-18  1.5279845705985027e-18  1.5279199979654933e-18  1.5279674941760785e-18  1.5281605594118381e-18  1.5287971693961076e-18  1.5343138210364850e-18  1.5709260327744673e-18  1.7812902814904480e-18  2.8786167520698868e-18  8.0486605879780370e-18  3.0014373794245539e-17  1.1415235702029000e-16  4.0454952778308779e-16  1.3069648953556954e-15  3.8293196270416751e-15  1.0162631080873588e-14  2.4423010081958892e-14  5.3149201035666343e-14  1.0474462284610867e-13  1.8696208536871883e-13  3.0228952301486558e-13  4.4280514616058437e-13  5.8776970214305054e-13  7.0714147514626082e-13  7.7130531239142436e-13  7.6296010203244736e-13  6.8467670819190310e-13  5.5762693476704006e-13  4.1232578657159656e-13  2.7688208789760066e-13  1.6883743095444575e-13  9.3383538700072095e-14  4.6658404169381320e-14  2.0791696075453488e-14  7.9202622698297980e-15  2.1448687947163965e-15  -1.8989622833712633e-16  -1.0297790202084586e-15  -1.2837061439170839e-15  -1.3295218195203373e-15  -1.3084614257735354e-15  -1.2683984776687980e-15  -1.2241490034695171e-15  -1.1799132076310993e-15  -1.1367704073030785e-15  -1.0949532005489247e-15  -1.0544811593479113e-15  -1.0153243143947558e-15  -9.7744304232138277e-16  -9.4079612678846672e-16  -9.0534460489651623e-16  -8.7104775162084542e-16  -8.3787280690786072e-16  -8.0577338023068784e-16  -7.7473735849482531e-16  -7.4468025979319968e-16  -7.1568214432058165e-16  -6.8746111740089948e-16  -6.6054230456760390e-16  -6.3366397122208961e-16  -6.0952844176446821e-16  -5.8206231370039102e-16  -5.6470596795586250e-16  1.5280037638295059e-18  1.5279651903137101e-18  1.5279122248445257e-18  1.5279856663895641e-18  1.5282245529553222e-18  1.5289700481669817e-18  1.5365109576935151e-18  1.5920573144960547e-18  1.9442178937309972e-18  3.9766655945837636e-18  1.4579963486894210e-17  6.4479351635643659e-17  2.7630876603218251e-16  1.0871348765987547e-15  3.8838439042914180e-15  1.2569653669246768e-14  3.6835113493070346e-14  9.7735705742062299e-14  2.3481169510712329e-13  5.1085846215833798e-13  1.0065716170973928e-12  1.7964280338877656e-12  2.9044515958813319e-12  4.2548881618898343e-12  5.6490763461622232e-12  6.7990150285530899e-12  7.4204474667116690e-12  7.3467111073302037e-12  6.6013121257447444e-12  5.3861237650256238e-12  3.9931054148048987e-12  2.6919341615559815e-12  1.6516609012318743e-12  9.2321650322096474e-13  4.7056430111197573e-13  2.1881055617997931e-13  9.2692997565606407e-14  3.5493899638078203e-14  1.1905050459657473e-14  3.0302243796969671e-15  -1.6401021629534673e-17  -9.5966906542579403e-16  -1.2069240890293100e-15  -1.2420028238925333e-15  -1.2176072422754622e-15  -1.1783566615203826e-15  -1.1364114257187014e-15  -1.0948710036854836e-15  -1.0544607806784715e-15  -1.0153173570889926e-15  -9.7743896645568814e-16  -9.4079272731539999e-16  -9.0534140434333698e-16  -8.7104471380396843e-16  -8.3786979439193693e-16  -8.0577063662094169e-16  -7.7473435468934172e-16  -7.4467807600455969e-16  -7.1567859882599756e-16  -6.8746041463021105e-16  -6.6053683557067476e-16  -6.3366577875152494e-16  -6.0952350709082352e-16  -5.8204508231939371e-16  -5.6472755105789763e-16  1.5279633055437109e-18  1.5279268597486039e-18  1.5279718656575524e-18  1.5281855385990843e-18  1.5289339867704561e-18  1.5373777796934217e-18  1.6063168701692546e-18  2.0888211198803412e-18  5.1694374998307144e-18  2.2958002154038320e-17  1.1563977571258913e-16  5.5143184754643574e-16  2.4000954969276488e-15  9.4714909304615257e-15  3.3847099663169129e-14  1.0950859792659501e-13  3.2077689263235762e-13  8.5077427630338962e-13  2.0432422489183981e-12  4.4439020803424850e-12  8.7538821515537884e-12  1.5620327014854411e-11  2.5252569296291165e-11  3.6994195714950942e-11  4.9122167305084668e-11  5.9137259962463200e-11  6.4570390354298939e-11  6.3969549503557925e-11  5.7530330066996257e-11  4.6996447726394791e-11  3.4897418139291838e-11  2.3575644495375108e-11  1.4505685568057599e-11  8.1390956112885017e-12  4.1710733571150557e-12  1.9558787477097417e-12  8.4088034608304125e-13  3.3206795595530736e-13  1.2048751432997906e-13  3.9910510775873213e-14  1.1665354979397257e-14  2.5120971288962215e-15  -2.3213036204510052e-16  -9.8149450064207803e-16  -1.1508412819636972e-15  -1.1618294075835349e-15  -1.1324350636528151e-15  -1.0939356642606979e-15  -1.0542435718179782e-15  -1.0152659695335108e-15  -9.7742509163550517e-16  -9.4078721719048328e-16  -9.0533777220812663e-16  -8.7104156826085660e-16  -8.3786680444833333e-16  -8.0576780417719774e-16  -7.7473153007285179e-16  -7.4467551990159091e-16  -7.1567580241259973e-16  -6.8745826703167956e-16  -6.6053395445491633e-16  -6.3366367099656853e-16  -6.0952238731056458e-16  -5.8203661359283140e-16  -5.6471934403421845e-16  1.5278627719494879e-18  1.5279464277329484e-18  1.5281143390341944e-18  1.5287455033973271e-18  1.5365246231740266e-18  1.6065630670427615e-18  2.1481560570064499e-18  5.9722266069143260e-18  3.0403727900289630e-17  1.7127608948260712e-16  9.0460557304724477e-16  4.3502278830781456e-15  1.8956602840168215e-14  7.4791957637563477e-14  2.6714698649879562e-13  8.6389353363221532e-13  2.5293729199485815e-12  6.7056823986592007e-12  1.6098712188537960e-11  3.5002944031905915e-11  6.8934831483193333e-11  1.2298696791107176e-10  1.9881248160503124e-10  2.9126313889718685e-10  3.8680888917697964e-10  4.6581204801532053e-10  5.0885039843012005e-10  5.0446357748078707e-10  4.5411471217950572e-10  3.7143481980972855e-10  2.7626544052875925e-10  1.8703246015084096e-10  1.1538896107951173e-10  6.4966635539473830e-11  3.3439076069536640e-11  1.5768175813755750e-11  6.8295959731996584e-12  2.7254413529504439e-12  1.0056374247792753e-12  3.4429778485164858e-13  1.0954652907737905e-13  3.2138749792446152e-14  8.2706680678990539e-15  1.3505469374140487e-15  -5.3478440628464409e-16  -1.0039249123615818e-15  -1.0929195302350373e-15  -1.0842343455470045e-15  -1.0518983388818819e-15  -1.0147054450701028e-15  -9.7729112307246940e-16  -9.4075380793633894e-16  -9.0532776524449824e-16  -8.7103698667602611e-16  -8.3786351021213508e-16  -8.0576488108450942e-16  -7.7472873705690373e-16  -7.4467286931721338e-16  -7.1567317799775148e-16  -6.8745581792390969e-16  -6.6053152103978970e-16  -6.3366116657242166e-16  -6.0952079364570189e-16  -5.8203269050942963e-16  -5.6471269045153961e-16  1.5278469327952177e-18  1.5279688235926841e-18  1.5284474253362326e-18  1.5343239013732745e-18  1.5925620536403853e-18  2.0906439730573559e-18  5.9795570893507660e-18  3.3459748708019153e-17  2.0875611098187394e-16  1.2186218975392272e-15  6.4717591870409845e-15  3.1136517646838278e-14  1.3562369885062908e-13  5.3479976133818309e-13  1.9092051687593437e-12  6.1708633685458527e-12  1.8059370750276547e-11  4.7858498675230412e-11  1.1485705257313378e-10  2.4965952469763007e-10  4.9157450220064058e-10  8.7690267979577168e-10  1.4174840162031393e-09  2.0767794196347657e-09  2.7586028067300904e-09  3.3232316328007814e-09  3.6322931896148866e-09  3.6038180209295516e-09  3.2476096219200219e-09  2.6600839827677841e-09  1.9821440849530085e-09  1.3450623077656194e-09  8.3229194642102144e-10  4.7034543881963962e-10  2.4322023115795536e-10  1.1535700687680936e-10  5.0326508753118230e-11  2.0266377664702279e-11  7.5650208289172932e-12  2.6305653583777381e-12  8.5680969598898272e-13  2.6276332187525999e-13  7.5991867194921242e-14  2.0421938699025177e-14  4.6564248866983465e-15  3.7160922280144976e-16  -7.3599172741455565e-16  -9.9312329690685139e-16  -1.0289450479585118e-15  -1.0089863559976206e-15  -9.7587877240901517e-16  -9.4040670421146611e-16  -9.0524150724932684e-16  -8.7101406415192136e-16  -8.3785585047531318e-16  -8.0576092399057460e-16  -7.7472571538576368e-16  -7.4467014273251932e-16  -7.1567057559689707e-16  -6.8745331649945917e-16  -6.6052912682426872e-16  -6.3365873908947757e-16  -6.0951874505281446e-16  -5.8203016721338098e-16  -5.6470895454771089e-16  1.5276790765955574e-18  1.5281169432943791e-18  1.5318123107810496e-18  1.5715051837177611e-18  1.9469780164973426e-18  5.1877970949874790e-18  3.0508618790382354e-17  2.0915030214226295e-16  1.3476911254957094e-15  7.9019100713054716e-15  4.1971076668892231e-14  2.0182578902241125e-13  8.7859347729108924e-13  3.4625734445112057e-12  1.2354732283437338e-11  3.9913437747988151e-11  1.1675861318787837e-10  3.0930048171652268e-10  7.4205939825613466e-10  1.6125602030419469e-09  3.1745003553647231e-09  5.6622948672430143e-09  9.1528847848775839e-09  1.3411620389740061e-08  1.7819443271054009e-08  2.1476120836878146e-08  2.3488684264164296e-08  2.3325724559713950e-08  2.1045847238522840e-08  1.7266054246003777e-08  1.2892239495836253e-08  8.7715095918472499e-09  5.4455609382836503e-09  3.0901508013315895e-09  1.6061944087727498e-09  7.6668031426750928e-10  3.3712586427874404e-10  1.3708502449094538e-10  5.1785365943505713e-11  1.8273176749656506e-11  6.0610704133806662e-12  1.9029768611439144e-12  5.6950600658189873e-13  1.6330634079865140e-13  4.4763763110416218e-14  1.1359249454155189e-14  2.2178310243681893e-15  -2.1070162579982413e-16  -8.2413786443300337e-16  -9.5590365466380577e-16  -9.6223493998078508e-16  -9.3692496226674561e-16  -9.0435712369926707e-16  -8.7078925855690808e-16  -8.3779736891849083e-16  -8.0574425087009078e-16  -7.7471952354086704e-16  -7.4466662410806154e-16  -7.1566778301201496e-16  -6.8745076277016269e-16  -6.6052670909040601e-16  -6.3365637047725877e-16  -6.0951652845886401e-16  -5.8202795183699306e-16  -5.6470642083729846e-16  1.5264099687928771e-18  1.5293749282318866e-18  1.5518310951103657e-18  1.7839143657483995e-18  3.9974458674793481e-18  2.3114653513730866e-17  1.7224931866620938e-16  1.2234846679247161e-15  7.9184478113278623e-15  4.6431204900995673e-14  2.4648561461714574e-13  1.1845574629862117e-12  5.1536657255674436e-12  2.0299850861067728e-11  7.2395393971757450e-11  2.3377575756574454e-10  6.8358452104488752e-10  1.8102099595406705e-09  4.3416711129117570e-09  9.4326267015152569e-09  1.8566241772698388e-08  3.3114083900169129e-08  5.3530035721919085e-08  7.8450825725211378e-08  1.0426935062740611e-07  1.2573290888765362e-07  1.3762099529998966e-07  1.3681009365616676e-07  1.2361096118208222e-07  1.0159537780941301e-07  7.6036350667332504e-08  5.1885818254064489e-08  3.2331499487076103e-08  1.8431901906593744e-08  9.6356362076238897e-09  4.6320892312523361e-09  2.0546929050697455e-09  8.4448474572926870e-10  3.2319853520312616e-10  1.1585598061142595e-10  3.9160417840780352e-11  1.2573689262524852e-11  3.8646826001450243e-12  1.1455512128885903e-12  3.2940597717640338e-13  9.2035982244995063e-14  2.4690149064214977e-14  5.9628691658415852e-15  8.5280588424824918e-16  -5.0469675867292867e-16  -8.4180010481486556e-16  -9.0500061659597369e-16  -8.9594009541351980e-16  -8.6857970354294281e-16  -8.3721743591077215e-16  -8.0559107869239939e-16  -7.7467757486230062e-16  -7.4465376074243003e-16  -7.1566253722183671e-16  -6.8744756459867244e-16  -6.6052411281497735e-16  -6.3365397824144654e-16  -6.0951425798654381e-16  -5.8202577403755606e-16  -5.6470422016987194e-16  1.5211131150681319e-18  1.5363102090857232e-18  1.6555295329106289e-18  2.8954109889845128e-18  1.4724658072167287e-17  1.1673978667170366e-16  9.1187370251880397e-16  6.5126167983110846e-15  4.2156014272605311e-14  2.4705430493755760e-13  1.3107184237151635e-12  6.2953425904546282e-12  2.7374141510102478e-11  1.0776925674503464e-10  3.8415648268882418e-10  1.2399675899085217e-09  3.6244058439487472e-09  9.5946659176471806e-09  2.3005945056970662e-08  4.9972199857583675e-08  9.8348708591954245e-08  1.7540811888053107e-07  2.8358239374869840e-07  4.1570732652926022e-07  5.5275479614743302e-07  6.6696695591203935e-07  7.3069042143618727e-07  7.2727446622924664e-07  6.5816703552124636e-07  5.4206961599555643e-07  4.0677155471784767e-07  2.7849985149329140e-07  1.7426571928617672e-07  9.9863505961218631e-08  5.2541507357384204e-08  2.5458454278158875e-08  1.1402870421914628e-08  4.7424094483234929e-09  1.8412087126466956e-09  6.7145896318889044e-10  2.3162512572513548e-10  7.6153096288577615e-11  2.4048852399150877e-11  7.3491014740083186e-12  2.1874496889447422e-12  6.3729734297346007e-13  1.8211907084050970e-13  5.0816611339908807e-14  1.3491006565678096e-14  3.0225508791542307e-15  1.3465204508797276e-16  -6.3657724554753404e-16  -8.2255880667258146e-16  -8.4861259269593148e-16  -8.3179622710248009e-16  -8.0412183162512890e-16  -7.7427722959852959e-16  -7.4454345211714493e-16  -7.1563059272656997e-16  -6.8743704924293416e-16  -6.6051948428412966e-16  -6.3365102157305921e-16  -6.0951182153303056e-16  -5.8202354639485783e-16  -5.6470207250160130e-16  1.4993773594322410e-18  1.5694325679873524e-18  2.1457324895237157e-18  8.1479286736829296e-18  6.5339513004061775e-17  5.5814109461147174e-16  4.3964057992288624e-15  3.1412924996853296e-14  2.0323076850848239e-13  1.1903085580104360e-12  6.3113392738068037e-12  3.0296376818999929e-11  1.3166986131968063e-10  5.1812100700676756e-10  1.8460850422105877e-09  5.9563383680214383e-09  1.7404110214684183e-08  4.6058989438385385e-08  1.1041341606655938e-07  2.3979517673036325e-07  4.7190062537464508e-07  8.4168500302262705e-07  1.3609920456142118e-06  1.9957744605231505e-06  2.6551564268800030e-06  3.2062737167564500e-06  3.5163783782420909e-06  3.5049403155207867e-06  3.1777905583777264e-06  2.6234768559527189e-06  1.9746028764755348e-06  1.3570419724877350e-06  8.5314359769356318e-07  4.9175314400080771e-07  2.6059381549113305e-07  1.2738766282883235e-07  5.7676032422985176e-08  2.4303649606459299e-08  9.5858081333040242e-09  3.5620642565063071e-09  1.2561087844396575e-09  4.2356399187761642e-10  1.3761981698640167e-10  4.3389814258906647e-11  1.3356276266240259e-11  4.0332680981278527e-12  1.1988143373902367e-12  3.5127239350974351e-13  1.0129748007015337e-13  2.8434477956904201e-14  7.4269467396885880e-15  1.4406774392957961e-15  -2.3435572552378043e-16  -6.8288971730769335e-16  -7.8523529269913914e-16  -7.9107600130033047e-16  -7.7061449076925465e-16  -7.4351530988834133e-16  -7.1533826411987432e-16  -6.8735277776575995e-16  -6.6049361430928409e-16  -6.3364193444683084e-16  -6.0950758822519673e-16  -5.8202077229798298e-16  -5.6469977232060527e-16  1.4179319848115964e-18  1.7134303637572136e-18  4.2380185809505414e-18  3.0529451168912378e-17  2.8084484696196221e-16  2.4361983227305489e-15  1.9211748775212821e-14  1.3721173309165199e-13  8.8718966793032731e-13  5.1931887472857176e-12  2.7520490353045846e-11  1.3203813245477090e-10  5.7356620439105007e-10  2.2559636888933914e-09  8.0347598795543337e-09  2.5914297618996787e-08  7.5695874055833326e-08  2.0027203124002628e-07  4.8000238176480481e-07  1.0423510731998157e-06  2.0512582295419208e-06  3.6590587234874922e-06  5.9182176102462169e-06  8.6824472527268135e-06  1.1558810904084363e-05  1.3971200238871419e-05  1.5341981082316476e-05  1.5317639086746877e-05  1.3917802270909851e-05  1.1521509383603945e-05  8.7017023451951576e-06  6.0059254241473035e-06  3.7959351450162091e-06  2.2023962209542433e-06  1.1765691921151954e-06  5.8085715830431166e-07  2.6616797541129068e-07  1.137982202256