<?xml version="1.0"?>
<VTKFile type="UnstructuredGrid"  version="0.1"  >
<UnstructuredGrid>
<Piece  NumberOfPoints="4225" NumberOfCells="8192">
<Points>
<DataArray  type="Float64"  NumberOfComponents="3"  format="ascii">0 0 0  0.015625 0 0  0.03125 0 0  0.046875 0 0  0.0625 0 0  0.078125 0 0  0.09375 0 0  0.109375 0 0  0.125 0 0  0.140625 0 0  0.15625 0 0  0.171875 0 0  0.1875 0 0  0.203125 0 0  0.21875 0 0  0.234375 0 0  0.25 0 0  0.265625 0 0  0.28125 0 0  0.296875 0 0  0.3125 0 0  0.328125 0 0  0.34375 0 0  0.359375 0 0  0.375 0 0  0.390625 0 0  0.40625 0 0  0.421875 0 0  0.4375 0 0  0.453125 0 0  0.46875 0 0  0.484375 0 0  0.5 0 0  0.515625 0 0  0.53125 0 0  0.546875 0 0  0.5625 0 0  0.578125 0 0  0.59375 0 0  0.609375 0 0  0.625 0 0  0.640625 0 0  0.65625 0 0  0.671875 0 0  0.6875 0 0  0.703125 0 0  0.71875 0 0  0.734375 0 0  0.75 0 0  0.765625 0 0  0.78125 0 0  0.796875 0 0  0.8125 0 0  0.828125 0 0  0.84375 0 0  0.859375 0 0  0.875 0 0  0.890625 0 0  0.90625 0 0  0.921875 0 0  0.9375 0 0  0.953125 0 0  0.96875 0 0  0.984375 0 0  1 0 0  0 0.015625 0  0.015625 0.015625 0  0.03125 0.015625 0  0.046875 0.015625 0  0.0625 0.015625 0  0.078125 0.015625 0  0.09375 0.015625 0  0.109375 0.015625 0  0.125 0.015625 0  0.140625 0.015625 0  0.15625 0.015625 0  0.171875 0.015625 0  0.1875 0.015625 0  0.203125 0.015625 0  0.21875 0.015625 0  0.234375 0.015625 0  0.25 0.015625 0  0.265625 0.015625 0  0.28125 0.015625 0  0.296875 0.015625 0  0.3125 0.015625 0  0.328125 0.015625 0  0.34375 0.015625 0  0.359375 0.015625 0  0.375 0.015625 0  0.390625 0.015625 0  0.40625 0.015625 0  0.421875 0.015625 0  0.4375 0.015625 0  0.453125 0.015625 0  0.46875 0.015625 0  0.484375 0.015625 0  0.5 0.015625 0  0.515625 0.015625 0  0.53125 0.015625 0  0.546875 0.015625 0  0.5625 0.015625 0  0.578125 0.015625 0  0.59375 0.015625 0  0.609375 0.015625 0  0.625 0.015625 0  0.640625 0.015625 0  0.65625 0.015625 0  0.671875 0.015625 0  0.6875 0.015625 0  0.703125 0.015625 0  0.71875 0.015625 0  0.734375 0.015625 0  0.75 0.015625 0  0.765625 0.015625 0  0.78125 0.015625 0  0.796875 0.015625 0  0.8125 0.015625 0  0.828125 0.015625 0  0.84375 0.015625 0  0.859375 0.015625 0  0.875 0.015625 0  0.890625 0.015625 0  0.90625 0.015625 0  0.921875 0.015625 0  0.9375 0.015625 0  0.953125 0.015625 0  0.96875 0.015625 0  0.984375 0.015625 0  1 0.015625 0  0 0.03125 0  0.015625 0.03125 0  0.03125 0.03125 0  0.046875 0.03125 0  0.0625 0.03125 0  0.078125 0.03125 0  0.09375 0.03125 0  0.109375 0.03125 0  0.125 0.03125 0  0.140625 0.03125 0  0.15625 0.03125 0  0.171875 0.03125 0  0.1875 0.03125 0  0.203125 0.03125 0  0.21875 0.03125 0  0.234375 0.03125 0  0.25 0.03125 0  0.265625 0.03125 0  0.28125 0.03125 0  0.296875 0.03125 0  0.3125 0.03125 0  0.328125 0.03125 0  0.34375 0.03125 0  0.359375 0.03125 0  0.375 0.03125 0  0.390625 0.03125 0  0.40625 0.03125 0  0.421875 0.03125 0  0.4375 0.03125 0  0.453125 0.03125 0  0.46875 0.03125 0  0.484375 0.03125 0  0.5 0.03125 0  0.515625 0.03125 0  0.53125 0.03125 0  0.546875 0.03125 0  0.5625 0.03125 0  0.578125 0.03125 0  0.59375 0.03125 0  0.609375 0.03125 0  0.625 0.03125 0  0.640625 0.03125 0  0.65625 0.03125 0  0.671875 0.03125 0  0.6875 0.03125 0  0.703125 0.03125 0  0.71875 0.03125 0  0.734375 0.03125 0  0.75 0.03125 0  0.765625 0.03125 0  0.78125 0.03125 0  0.796875 0.03125 0  0.8125 0.03125 0  0.828125 0.03125 0  0.84375 0.03125 0  0.859375 0.03125 0  0.875 0.03125 0  0.890625 0.03125 0  0.90625 0.03125 0  0.921875 0.03125 0  0.9375 0.03125 0  0.953125 0.03125 0  0.96875 0.03125 0  0.984375 0.03125 0  1 0.03125 0  0 0.046875 0  0.015625 0.046875 0  0.03125 0.046875 0  0.046875 0.046875 0  0.0625 0.046875 0  0.078125 0.046875 0  0.09375 0.046875 0  0.109375 0.046875 0  0.125 0.046875 0  0.140625 0.046875 0  0.15625 0.046875 0  0.171875 0.046875 0  0.1875 0.046875 0  0.203125 0.046875 0  0.21875 0.046875 0  0.234375 0.046875 0  0.25 0.046875 0  0.265625 0.046875 0  0.28125 0.046875 0  0.296875 0.046875 0  0.3125 0.046875 0  0.328125 0.046875 0  0.34375 0.046875 0  0.359375 0.046875 0  0.375 0.046875 0  0.390625 0.046875 0  0.40625 0.046875 0  0.421875 0.046875 0  0.4375 0.046875 0  0.453125 0.046875 0  0.46875 0.046875 0  0.484375 0.046875 0  0.5 0.046875 0  0.515625 0.046875 0  0.53125 0.046875 0  0.546875 0.046875 0  0.5625 0.046875 0  0.578125 0.046875 0  0.59375 0.046875 0  0.609375 0.046875 0  0.625 0.046875 0  0.640625 0.046875 0  0.65625 0.046875 0  0.671875 0.046875 0  0.6875 0.046875 0  0.703125 0.046875 0  0.71875 0.046875 0  0.734375 0.046875 0  0.75 0.046875 0  0.765625 0.046875 0  0.78125 0.046875 0  0.796875 0.046875 0  0.8125 0.046875 0  0.828125 0.046875 0  0.84375 0.046875 0  0.859375 0.046875 0  0.875 0.046875 0  0.890625 0.046875 0  0.90625 0.046875 0  0.921875 0.046875 0  0.9375 0.046875 0  0.953125 0.046875 0  0.96875 0.046875 0  0.984375 0.046875 0  1 0.046875 0  0 0.0625 0  0.015625 0.0625 0  0.03125 0.0625 0  0.046875 0.0625 0  0.0625 0.0625 0  0.078125 0.0625 0  0.09375 0.0625 0  0.109375 0.0625 0  0.125 0.0625 0  0.140625 0.0625 0  0.15625 0.0625 0  0.171875 0.0625 0  0.1875 0.0625 0  0.203125 0.0625 0  0.21875 0.0625 0  0.234375 0.0625 0  0.25 0.0625 0  0.265625 0.0625 0  0.28125 0.0625 0  0.296875 0.0625 0  0.3125 0.0625 0  0.328125 0.0625 0  0.34375 0.0625 0  0.359375 0.0625 0  0.375 0.0625 0  0.390625 0.0625 0  0.40625 0.0625 0  0.421875 0.0625 0  0.4375 0.0625 0  0.453125 0.0625 0  0.46875 0.0625 0  0.484375 0.0625 0  0.5 0.0625 0  0.515625 0.0625 0  0.53125 0.0625 0  0.546875 0.0625 0  0.5625 0.0625 0  0.578125 0.0625 0  0.59375 0.0625 0  0.609375 0.0625 0  0.625 0.0625 0  0.640625 0.0625 0  0.65625 0.0625 0  0.671875 0.0625 0  0.6875 0.0625 0  0.703125 0.0625 0  0.71875 0.0625 0  0.734375 0.0625 0  0.75 0.0625 0  0.765625 0.0625 0  0.78125 0.0625 0  0.796875 0.0625 0  0.8125 0.0625 0  0.828125 0.0625 0  0.84375 0.0625 0  0.859375 0.0625 0  0.875 0.0625 0  0.890625 0.0625 0  0.90625 0.0625 0  0.921875 0.0625 0  0.9375 0.0625 0  0.953125 0.0625 0  0.96875 0.0625 0  0.984375 0.0625 0  1 0.0625 0  0 0.078125 0  0.015625 0.078125 0  0.03125 0.078125 0  0.046875 0.078125 0  0.0625 0.078125 0  0.078125 0.078125 0  0.09375 0.078125 0  0.109375 0.078125 0  0.125 0.078125 0  0.140625 0.078125 0  0.15625 0.078125 0  0.171875 0.078125 0  0.1875 0.078125 0  0.203125 0.078125 0  0.21875 0.078125 0  0.234375 0.078125 0  0.25 0.078125 0  0.265625 0.078125 0  0.28125 0.078125 0  0.296875 0.078125 0  0.3125 0.078125 0  0.328125 0.078125 0  0.34375 0.078125 0  0.359375 0.078125 0  0.375 0.078125 0  0.390625 0.078125 0  0.40625 0.078125 0  0.421875 0.078125 0  0.4375 0.078125 0  0.453125 0.078125 0  0.46875 0.078125 0  0.484375 0.078125 0  0.5 0.078125 0  0.515625 0.078125 0  0.53125 0.078125 0  0.546875 0.078125 0  0.5625 0.078125 0  0.578125 0.078125 0  0.59375 0.078125 0  0.609375 0.078125 0  0.625 0.078125 0  0.640625 0.078125 0  0.65625 0.078125 0  0.671875 0.078125 0  0.6875 0.078125 0  0.703125 0.078125 0  0.71875 0.078125 0  0.734375 0.078125 0  0.75 0.078125 0  0.765625 0.078125 0  0.78125 0.078125 0  0.796875 0.078125 0  0.8125 0.078125 0  0.828125 0.078125 0  0.84375 0.078125 0  0.859375 0.078125 0  0.875 0.078125 0  0.890625 0.078125 0  0.90625 0.078125 0  0.921875 0.078125 0  0.9375 0.078125 0  0.953125 0.078125 0  0.96875 0.078125 0  0.984375 0.078125 0  1 0.078125 0  0 0.09375 0  0.015625 0.09375 0  0.03125 0.09375 0  0.046875 0.09375 0  0.0625 0.09375 0  0.078125 0.09375 0  0.09375 0.09375 0  0.109375 0.09375 0  0.125 0.09375 0  0.140625 0.09375 0  0.15625 0.09375 0  0.171875 0.09375 0  0.1875 0.09375 0  0.203125 0.09375 0  0.21875 0.09375 0  0.234375 0.09375 0  0.25 0.09375 0  0.265625 0.09375 0  0.28125 0.09375 0  0.296875 0.09375 0  0.3125 0.09375 0  0.328125 0.09375 0  0.34375 0.09375 0  0.359375 0.09375 0  0.375 0.09375 0  0.390625 0.09375 0  0.40625 0.09375 0  0.421875 0.09375 0  0.4375 0.09375 0  0.453125 0.09375 0  0.46875 0.09375 0  0.484375 0.09375 0  0.5 0.09375 0  0.515625 0.09375 0  0.53125 0.09375 0  0.546875 0.09375 0  0.5625 0.09375 0  0.578125 0.09375 0  0.59375 0.09375 0  0.609375 0.09375 0  0.625 0.09375 0  0.640625 0.09375 0  0.65625 0.09375 0  0.671875 0.09375 0  0.6875 0.09375 0  0.703125 0.09375 0  0.71875 0.09375 0  0.734375 0.09375 0  0.75 0.09375 0  0.765625 0.09375 0  0.78125 0.09375 0  0.796875 0.09375 0  0.8125 0.09375 0  0.828125 0.09375 0  0.84375 0.09375 0  0.859375 0.09375 0  0.875 0.09375 0  0.890625 0.09375 0  0.90625 0.09375 0  0.921875 0.09375 0  0.9375 0.09375 0  0.953125 0.09375 0  0.96875 0.09375 0  0.984375 0.09375 0  1 0.09375 0  0 0.109375 0  0.015625 0.109375 0  0.03125 0.109375 0  0.046875 0.109375 0  0.0625 0.109375 0  0.078125 0.109375 0  0.09375 0.109375 0  0.109375 0.109375 0  0.125 0.109375 0  0.140625 0.109375 0  0.15625 0.109375 0  0.171875 0.109375 0  0.1875 0.109375 0  0.203125 0.109375 0  0.21875 0.109375 0  0.234375 0.109375 0  0.25 0.109375 0  0.265625 0.109375 0  0.28125 0.109375 0  0.296875 0.109375 0  0.3125 0.109375 0  0.328125 0.109375 0  0.34375 0.109375 0  0.359375 0.109375 0  0.375 0.109375 0  0.390625 0.109375 0  0.40625 0.109375 0  0.421875 0.109375 0  0.4375 0.109375 0  0.453125 0.109375 0  0.46875 0.109375 0  0.484375 0.109375 0  0.5 0.109375 0  0.515625 0.109375 0  0.53125 0.109375 0  0.546875 0.109375 0  0.5625 0.109375 0  0.578125 0.109375 0  0.59375 0.109375 0  0.609375 0.109375 0  0.625 0.109375 0  0.640625 0.109375 0  0.65625 0.109375 0  0.671875 0.109375 0  0.6875 0.109375 0  0.703125 0.109375 0  0.71875 0.109375 0  0.734375 0.109375 0  0.75 0.109375 0  0.765625 0.109375 0  0.78125 0.109375 0  0.796875 0.109375 0  0.8125 0.109375 0  0.828125 0.109375 0  0.84375 0.109375 0  0.859375 0.109375 0  0.875 0.109375 0  0.890625 0.109375 0  0.90625 0.109375 0  0.921875 0.109375 0  0.9375 0.109375 0  0.953125 0.109375 0  0.96875 0.109375 0  0.984375 0.109375 0  1 0.109375 0  0 0.125 0  0.015625 0.125 0  0.03125 0.125 0  0.046875 0.125 0  0.0625 0.125 0  0.078125 0.125 0  0.09375 0.125 0  0.109375 0.125 0  0.125 0.12
[...]
<PointData  Scalars="f_4824"> 
<DataArray  type="Float64"  Name="f_4824"  format="ascii">3.9117158454852565e-16  4.1071554564479144e-16  4.3519911109529335e-16  4.6047405914368737e-16  4.8625292920381001e-16  5.1296882050568848e-16  5.4052203938206196e-16  5.6895296104590863e-16  5.9830430665695233e-16  6.2862311799486505e-16  6.5999098750825308e-16  6.9255172259366487e-16  7.2658200708338609e-16  7.6262983684558777e-16  8.0175894823177235e-16  8.4591052212995953e-16  8.9828734869330194e-16  9.6345252390978500e-16  1.0465794863223396e-15  1.1512397227675664e-15  1.2756382569495641e-15  1.4084573459193155e-15  1.5268972928899672e-15  1.5998016555539864e-15  1.5967617017571029e-15  1.5002655693534936e-15  1.3148318894187465e-15  1.0675542027883827e-15  7.9903654687553080e-16  5.4931766607870511e-16  3.4593806850449570e-16  1.9916653858488226e-16  1.0466392531175261e-16  5.0139459948286074e-17  2.1869935162724490e-17  8.6735113360774686e-18  3.1199902165626284e-18  1.0112025704018300e-18  2.8827666906003974e-19  6.4457166797542956e-20  1.8649237934649787e-21  -1.3947021690531070e-20  -1.7555132984314184e-20  -1.8298782847071609e-20  -1.8437203161900341e-20  -1.8460468996350084e-20  -1.8463999677696028e-20  -1.8464483388200931e-20  -1.8464543199122242e-20  -1.8464549875961655e-20  -1.8464550548331466e-20  -1.8464550609342992e-20  -1.8464550614453784e-20  -1.8464550614768448e-20  -1.8464550614819897e-20  -1.8464550614810544e-20  -1.8464550614814411e-20  -1.8464550614813316e-20  -1.8464550614813523e-20  -1.8464550614813496e-20  -1.8464550614813277e-20  -1.8464550614813334e-20  -1.8464550614813298e-20  -1.8464550614813304e-20  -1.8464550614813286e-20  3.9146487868038728e-16  4.0960383347146938e-16  4.3564532172244800e-16  4.6039882336690465e-16  4.8626975876087105e-16  5.1302219835551886e-16  5.4061608379964885e-16  5.6916517836561354e-16  5.9876628243718127e-16  6.2964166887872485e-16  6.6228105391306020e-16  6.9780947983155255e-16  7.3882578277472859e-16  7.9114691762213441e-16  8.6705967612338180e-16  9.9049991833507734e-16  1.2035178747194902e-15  1.5709408082339263e-15  2.1767557278081215e-15  3.1039121917197574e-15  4.3933676032556434e-15  5.9911654624521228e-15  7.7098736141692752e-15  9.2391233519232132e-15  1.0224347031157672e-14  1.0393340756701904e-14  9.6711117340154187e-15  8.2180200248586860e-15  6.3664010616871953e-15  4.4907009414760487e-15  2.8814484641814659e-15  1.6805553993551451e-15  8.9036467676711438e-16  4.2827715394754970e-16  1.8694689505533751e-16  7.4019828408339817e-17  2.6568834828858044e-17  8.6366638252923577e-18  2.5349680927656450e-18  6.6404128792279780e-19  1.4677227291788509e-19  1.7761440222015628e-20  -1.1274241669491616e-20  -1.7172749505668340e-20  -1.8254522532286130e-20  -1.8433653942978549e-20  -1.8460438899159262e-20  -1.8464055685902509e-20  -1.8464496736574739e-20  -1.8464545311545065e-20  -1.8464550142651669e-20  -1.8464550576887428e-20  -1.8464550612031921e-20  -1.8464550614636792e-20  -1.8464550614802164e-20  -1.8464550614812518e-20  -1.8464550614813827e-20  -1.8464550614813259e-20  -1.8464550614813505e-20  -1.8464550614813355e-20  -1.8464550614813322e-20  -1.8464550614813343e-20  -1.8464550614813325e-20  -1.8464550614813304e-20  -1.8464550614813298e-20  3.9120496168030525e-16  4.0919931152584075e-16  4.3608240335966723e-16  4.6027118102167907e-16  4.8645219510385654e-16  5.1330145165343147e-16  5.4125359582242912e-16  5.7063169695096450e-16  6.0223851946663987e-16  6.3813663946318091e-16  6.8352636714485023e-16  7.5134628660395464e-16  8.7262524559443382e-16  1.1179049378420274e-15  1.6367938364442795e-15  2.7204227874560932e-15  4.8788192813655727e-15  8.8963114482381976e-15  1.5788482034707283e-14  2.6563379501262348e-14  4.1738580012609472e-14  6.0717527736458758e-14  8.1332999554676882e-14  9.9963241121828435e-14  1.1244425304886438e-13  1.1554300083245964e-13  1.0830091898663344e-13  9.2492134463226797e-14  7.1904650510997738e-14  5.0845597282107536e-14  3.2682193022495513e-14  1.9084827820533432e-14  1.0119842244651350e-14  4.8705887007100888e-15  2.1268857926497717e-15  8.4238100734469124e-16  3.0250211822923406e-16  9.8457401705079263e-17  2.9029935550817079e-17  7.7443366610280823e-18  1.8604662422099771e-18  3.9334533547263325e-19  6.3246186397139618e-20  -3.7899713476692336e-21  -1.6079654216472373e-20  -1.8113871947498170e-20  -1.8417905047674156e-20  -1.8458938804263777e-20  -1.8463940055002447e-20  -1.8464490548960167e-20  -1.8464545272338416e-20  -1.8464550185040463e-20  -1.8464550583672473e-20  -1.8464550612720643e-20  -1.8464550614708043e-20  -1.8464550614801146e-20  -1.8464550614814866e-20  -1.8464550614812997e-20  -1.8464550614813415e-20  -1.8464550614813367e-20  -1.8464550614813292e-20  -1.8464550614813343e-20  -1.8464550614813280e-20  -1.8464550614813304e-20  -1.8464550614813283e-20  3.9111904694727002e-16  4.0921250792566288e-16  4.3647088183346776e-16  4.6047991461788145e-16  4.8742520852885151e-16  5.1540004582848021e-16  5.4653584779686607e-16  5.8408207357137767e-16  6.3712371835041622e-16  7.2915777075429983e-16  9.1998437376695954e-16  1.3572749835192059e-15  2.3907604926113759e-15  4.8047419495172239e-15  1.0241209098132836e-14  2.1858555879446765e-14  4.5133303648233307e-14  8.8408141275575354e-14  1.6238147035166746e-13  2.7753326069404162e-13  4.3901693749204321e-13  6.4014770742977184e-13  8.5773671643875080e-13  1.0534884342418687e-12  1.1837155103048306e-12  1.2148123086876951e-12  1.1372183440108813e-12  9.7001500325131931e-13  7.5321256063090588e-13  5.3201876428392837e-13  3.4160241626755673e-13  1.9927478600709084e-13  1.0556130844977433e-13  5.0755868119384312e-14  2.2142392204143251e-14  8.7611875397405937e-15  3.1430932964528011e-15  1.0220492150961519e-15  3.0114282136484901e-16  8.0371455615967552e-17  1.9416199938749185e-17  4.2357731704838552e-18  8.2455569920318669e-19  1.3272931211100702e-19  6.0726400266798582e-21  -1.4861824387873105e-20  -1.7986051014055002e-20  -1.8407071333374089e-20  -1.8458306599922622e-20  -1.8463937293631041e-20  -1.8464496144810170e-20  -1.8464546242067206e-20  -1.8464550297205109e-20  -1.8464550594042369e-20  -1.8464550613567167e-20  -1.8464550614746676e-20  -1.8464550614812205e-20  -1.8464550614811923e-20  -1.8464550614813966e-20  -1.8464550614813120e-20  -1.8464550614813439e-20  -1.8464550614813382e-20  -1.8464550614813463e-20  -1.8464550614813388e-20  -1.8464550614813454e-20  3.9135871605065761e-16  4.0975616389842815e-16  4.3780065685096170e-16  4.6351080697795667e-16  4.9554886382725536e-16  5.3636323789788538e-16  6.0189431387377111e-16  7.3012604119254580e-16  1.0208567130470863e-15  1.7282685373850675e-15  3.4865189451396689e-15  7.8306749770443431e-15  1.8330191952538533e-14  4.2861065363923943e-14  9.7682466254209724e-14  2.1369334841706778e-13  4.4390584696581877e-13  8.6828577025351710e-13  1.5883184674275082e-12  2.7019395965578493e-12  4.2547565952073858e-12  6.1787275568824380e-12  8.2492818855134337e-12  1.0100461104548518e-11  1.1318509886811573e-11  1.1588716152413441e-11  1.0826345555710139e-11  9.2179152605125561e-12  7.1461491266461986e-12  5.0402054494482206e-12  3.2319186601264935e-12  1.8829920398051623e-12  9.9628774138403413e-13  4.7848436902007446e-13  2.0850515810090800e-13  8.2407805019679047e-14  2.9530627340881011e-14  9.5916084007161334e-15  2.8228989624355133e-15  7.5259317991988811e-16  1.8169979151224486e-16  3.9707668771147946e-17  7.8430533608563161e-18  1.3895210200425235e-18  2.0971052115739812e-19  1.4988855714259441e-20  -1.4027990631048537e-20  -1.7932410626460456e-20  -1.8406830566278799e-20  -1.8458889458683178e-20  -1.8464048593162336e-20  -1.8464510364980004e-20  -1.8464547697765026e-20  -1.8464550423597503e-20  -1.8464550603500737e-20  -1.8464550614208484e-20  -1.8464550614782038e-20  -1.8464550614813114e-20  -1.8464550614812955e-20  -1.8464550614813502e-20  -1.8464550614813433e-20  -1.8464550614813502e-20  -1.8464550614813545e-20  -1.8464550614813551e-20  -1.8464550614812816e-20  3.9343431772919360e-16  4.1441453534826462e-16  4.5001986725714531e-16  4.9573747738730205e-16  5.8113931950342935e-16  7.6249938112626991e-16  1.1964262549428848e-15  2.2799409569383716e-15  5.0202658463790493e-15  1.1925292980885005e-14  2.9109818522378658e-14  7.1064254724915910e-14  1.7084295715756720e-13  4.0015878826763168e-13  9.0490142104808265e-13  1.9588216047281757e-12  4.0263449326617301e-12  7.8007235060645868e-12  1.4151953100692579e-11  2.3905804494735089e-11  3.7422568986819215e-11  5.4075324746715046e-11  7.1894914970789872e-11  8.7717192898865199e-11  9.7999070098966555e-11  1.0007871323318740e-10  9.3284783352848497e-11  7.9269036336291183e-11  6.1345105161846739e-11  4.3198411565613563e-11  2.7659820962551616e-11  1.6093488174321551e-11  8.5041407229997349e-12  4.0792302460559507e-12  1.7754325855948473e-12  7.0086987675086484e-13  2.5085460047446974e-13  8.1379524812279005e-14  2.3921279191512599e-14  6.3695218232947674e-15  1.5359122149357900e-15  3.3530959245034643e-16  6.6249790710292953e-17  1.1833467874819052e-17  1.8994952475925569e-18  2.6232665825085423e-19  1.8719488333973902e-20  -1.4011039620627786e-20  -1.7982187828825227e-20  -1.8417308335671027e-20  -1.8460367081108984e-20  -1.8464215662251667e-20  -1.8464526368241229e-20  -1.8464549028164582e-20  -1.8464550520944405e-20  -1.8464550609775911e-20  -1.8464550614580215e-20  -1.8464550614798516e-20  -1.8464550614814622e-20  -1.8464550614812952e-20  -1.8464550614813638e-20  -1.8464550614813418e-20  -1.8464550614813355e-20  -1.8464550614813135e-20  -1.8464550614812774e-20  4.1433401128177062e-16  4.6283173370708977e-16  5.7909260864995452e-16  8.3634146822483343e-16  1.4737424220119131e-15  3.0814600873870278e-15  7.1642397036894945e-15  1.7480711720744416e-14  4.3311195122191777e-14  1.0720156180100751e-13  2.6283212441850073e-13  6.3462443134842754e-13  1.5007433998146892e-12  3.4539943723304858e-12  7.6816849439999401e-12  1.6381644131927819e-11  3.3237886691381551e-11  6.3687646119920703e-11  1.1447138182087227e-10  1.9186972002477540e-10  2.9841329637748444e-10  4.2887264304324603e-10  5.6761175316504573e-10  6.8987511304552912e-10  7.6822794228280039e-10  7.8233703581266725e-10  7.2746015756390396e-10  6.1684790011826289e-10  4.7646810761241912e-10  3.3495188882898466e-10  2.1413506383349518e-10  1.2441138266236035e-10  6.5651820209014263e-11  3.1450318458147354e-11  1.3670882518704586e-11  5.3899262189712432e-12  1.9267348423753950e-12  6.2426077258199956e-13  1.8326491060597688e-13  4.8734523511066457e-14  1.1736074551268071e-14  2.5587651990568853e-15  5.0495697729885218e-16  9.0168929005833720e-17  1.4555626097356051e-17  2.1121617431024121e-18  2.6328445604987845e-19  1.5232727398345289e-20  -1.4819854761155217e-20  -1.8108077318350704e-20  -1.8433024909038033e-20  -1.8462029713460024e-20  -1.8464368357299074e-20  -1.8464538701176590e-20  -1.8464549910597384e-20  -1.8464550577240204e-20  -1.8464550612976228e-20  -1.8464550614739968e-20  -1.8464550614808931e-20  -1.8464550614813388e-20  -1.8464550614813364e-20  -1.8464550614813036e-20  -1.8464550614812880e-20  -1.8464550614812552e-20  -1.8464550614812482e-20  6.3148490844872649e-16  9.6055947687174059e-16  1.8845806769432033e-15  4.2114071147702065e-15  1.0118721009776002e-14  2.5006144300897186e-14  6.2198514678686047e-14  1.5415502220699278e-13  3.7893176505242980e-13  9.2136406660838370e-13  2.2107985175716965e-12  5.2195646455098422e-12  1.2075783763559367e-11  2.7229501845120863e-11  5.9446254963467867e-11  1.2471725768496290e-10  2.4950163736190599e-10  4.7237484656598687e-10  8.4052284435825960e-10  1.3970102649065426e-09  2.1575434363942085e-09  3.0826330750226386e-09  4.0598485575302686e-09  4.9139370753241907e-09  5.4528242591394924e-09  5.5362616924197158e-09  5.1345134251584532e-09  4.3438662938806736e-09  3.3485177469123135e-09  2.3496872147117078e-09  1.4996610558619359e-09  8.6995285670747799e-10  4.5840744448518653e-10  2.1929410076743221e-10  9.5194932211513042e-11  3.7482294595711149e-11  1.3381226081700156e-11  4.3298252794387914e-12  1.2694345007770648e-12  3.3712302461942806e-13  8.1075278724355823e-14  1.7652424513281021e-14  3.4788776537954775e-15  6.2043973242536777e-16  1.0010635989039900e-16  1.4598679809899230e-17  1.9118035516977109e-18  2.1208223689615399e-19  6.4382240601829581e-21  -1.6032050516157870e-20  -1.8249692609805958e-20  -1.8447390202338372e-20  -1.8463311328004642e-20  -1.8464469689908591e-20  -1.8464545836976096e-20  -1.8464550359636361e-20  -1.8464550602527207e-20  -1.8464550614268654e-20  -1.8464550614793410e-20  -1.8464550614812362e-20  -1.8464550614812955e-20  -1.8464550614812943e-20  -1.8464550614812816e-20  -1.8464550614812937e-20  -1.8464550614813286e-20  2.7571166715373691e-15  5.7279166694549034e-15  1.4101721042108903e-14  3.5027180716470661e-14  8.7085084427033417e-14  2.1526180647695252e-13  5.2754332943274377e-13  1.2799986533721288e-12  3.0720143557031430e-12  7.2857630368332653e-12  1.7050447374220960e-11  3.9282668438895119e-11  8.8785587200059657e-11  1.9589676781246286e-10  4.1932138654452216e-10  8.6449839722899258e-10  1.7034702809377657e-09  3.1837593625573242e-09  5.6037354105682681e-09  9.2294143599030195e-09  1.4146083622385878e-08  2.0083823006867005e-08  2.6310575360610596e-08  3.1703755695731821e-08  3.5047602028207477e-08  3.5468837452232991e-08  3.2803052825121935e-08  2.7684009818396114e-08  2.1294356536400600e-08  1.4913432179369942e-08  9.5014865079481367e-09  5.5027904909751584e-09  2.8951517722758263e-09  1.3829637949427486e-09  5.9949278038684481e-10  2.3572019675853855e-10  8.4037873151130274e-11  2.7155720760590128e-11  7.9508401014726070e-12  2.1086317863448276e-12  5.0641593017747123e-13  1.1011009495071983e-13  2.1670314430577057e-14  3.8595476438813020e-15  6.2195564515820788e-16  9.0659880477830380e-17  1.1940089656344244e-17  1.4079749644575867e-18  1.3541904566622138e-19  -3.4515136362320041e-21  -1.7140018268206609e-20  -1.8358878193834680e-20  -1.8456927031102318e-20  -1.8464053276805838e-20  -1.8464521275304684e-20  -1.8464549049873246e-20  -1.8464550539272725e-20  -1.8464550611526145e-20  -1.8464550614683547e-20  -1.8464550614807544e-20  -1.8464550614813319e-20  -1.8464550614812747e-20  -1.8464550614813150e-20  -1.8464550614813271e-20  -1.8464550614813710e-20  2.1977078432093046e-14  4.7805040159397699e-14  1.1928186599758849e-13  2.9356479800003041e-13  7.1618538799256491e-13  1.7298859851426666e-12  4.1348915022030736e-12  9.7768066925255806e-12  2.2857465015813547e-11  5.2804295251504329e-11  1.2039964222801151e-10  2.7042971045264271e-10  5.9651900408923541e-10  1.2864986341551544e-09  2.6970249019760817e-09  5.4580761915103007e-09  1.0582277721696295e-08  1.9505775420235029e-08  3.3932136541531310e-08  5.5340414718373352e-08  8.4128747537526692e-08  1.1862722739550460e-07  1.5451968253609583e-07  1.8530001274721370e-07  2.0401155302062597e-07  2.0574695183749330e-07  1.8971348243443587e-07  1.5968954569711321e-07  1.2254848008547930e-07  8.5648894349714388e-08  5.4465157565377795e-08  3.1488868690608001e-08  1.6540207087004873e-08  7.8888226472070272e-09  3.4146271179829323e-09  1.3407017495076961e-09  4.7730754837996111e-10  1.5402086610499078e-10  4.5032915060780657e-11  1.1926650050605853e-11  2.8604006572554340e-12  6.2108327454827970e-13  1.2206576121142000e-13  2.1710844852295352e-14  3.4940252674707113e-15  5.0871142204472863e-16  6.6985969820030644e-17  7.9639902352310685e-18  8.4164576305694887e-19  6.5352597574719492e-20  -1.1077752675775671e-20  -1.7875823299695371e-20  -1.8422117765435188e-20  -1.8461784813470144e-20  -1.8464387583458127e-20  -1.8464541923728629e-20  -1.8464550195832673e-20  -1.8464550596551738e-20  -1.8464550614086936e-20  -1.8464550614789904e-20  -1.8464550614811411e-20  -1.8464550614813466e-20  -1.8464550614813391e-20  -1.8464550614813788e-20  -1.8464550614814062e-20  1.8196623098600834e-13  3.8940359924172008e-13  9.5157651901794400e-13  2.2858306978000721e-12  5.4360502061397462e-12  1.2790776621018767e-11  2.9770909195891147e-11  6.8527597452360142e-11  1.5594779111580956e-10  3.5067729060346501e-10  7.7848340448251307e-10  1.7033395621030477e-09  3.6636407532744699e-09  7.7155278452537438e-09  1.5824549421995768e-08  3.1401218028657012e-08  5.9840028388487248e-08  1.0867379973027860e-07  1.8668138174081942e-07  3.0125650889928649e-07  4.5394046683475605e-07  6.3538280368459698e-07  8.2254028154662103e-07  9.8129681364691465e-07  1.0756701873141595e-06  1.0807809358930894e-06  9.9336227434986996e-07  8.3381855140582992e-07  6.3831125052908022e-07  4.4513325495724307e-07  2.8250150825498758e-07  1.6302832899181692e-07  8.5488004278741052e-08  4.0707627417076634e-08  1.7592877606227934e-08  6.8972835340397758e-09  2.4519544609217009e-09  7.9008351763980121e-10  2.3068043283583395e-10  6.1008795412586213e-11  1.4611655999766982e-11  3.1683026793171942e-12  6.2184460482923686e-13  1.1045488642729936e-13  1.7752808680775756e-14  2.5814801753073574e-15  3.3956842687025372e-16  4.0389498623746331e-17  4.3305535711672694e-18  4.0488862606062067e-19  1.8807899326269105e-20  -1.5496722020788932e-20  -1.8250826810753549e-20  -1.8450630859023365e-20  -1.8463730677202287e-20  -1.8464506932498423e-20  -1.8464548510004289e-20  -1.8464550523054650e-20  -1.8464550611207888e-20  -1.8464550614680541e-20  -1.8464550614810511e-20  -1.8464550614813135e-20  -1.8464550614813945e-20  -1.8464550614813960e-20  -1.8464550614814378e-20  1.4071527490017591e-12  2.9391641952842661e-12  7.0032401912290773e-12  1.6383648622147475e-11  3.7934153361316154e-11  8.6876794338608270e-11  1.9677212187884020e-10  4.4068325065908130e-10  9.7562374758984090e-10  2.1342806729662693e-09  4.6101060965295285e-09  9.8192874910343175e-09  2.0576825645353158e-08  4.2275744675258674e-08  8.4741550573147373e-08  1.6470201779552498e-07  3.0816259865399756e-07  5.5083109313656565e-07  9.3351659024744922e-07  1.4894014616260643e-06  2.2229852861387384e-06  3.0868813497343314e-06  3.9696897859032937e-06  4.7095548701468854e-06  5.1382608917908866e-06  5.1420556791824188e-06  4.7099203218249465e-06  3.9416701218915016e-06  3.0095430277302039e-06  2.0938323133639277e-06  1.3260346965161613e-06  7.6375983164676119e-07  3.9977791611949672e-07  1.9004470642565369e-07  8.2000915930960496e-08  3.2098782596379280e-08  1.1393883096467014e-08  3.6660352041442282e-09  1.0688353053882569e-09  2.8227936844428784e-10  6.7512212480142278e-11  1.4618932895653145e-11  2.8654184507853272e-12  5.0830130199311704e-13  8.1592252840546233e-14  1.1849930858930034e-14  1.5569477806691100e-15  1.8503715821999694e-16  1.9877252287506363e-17  1.9163202839982954e-18  1.5171596638663133e-19  -4.9255952622125131e-21  -1.7490329613167552e-20  -1.8401144717121262e-20  -1.8460818049969508e-20  -1.8464351868882449e-20  -1.8464541042419722e-20  -1.8464550197852017e-20  -1.8464550598357090e-20  -1.8464550614234625e-20  -1.8464550614792745e-20  -1.8464550614814041e-20  -1.8464550614813797e-20  -1.8464550614814231e-20  -1.8464550614814255e-20  1.0035535739220370e-11  2.0432264495303423e-11  4.7425110067577683e-11  1.0797229466258027e-10  2.4325082118904105e-10  5.4194611427095417e-10  1.1938882911364981e-09  2.6002007487605894e-09  5.5975275880702861e-09  1.1906648071365142e-08  2.5010900343470476e-08  5.1825377714149691e-08  1.0573155964909339e-07  2.1173752153396978e-07  4.1439160524673354e-07  7.8801700777653374e-07  1.4460348938700850e-06  2.5413624829286031e-06  4.2450098475593397e-06  6.6904036765469907e-06  9.8837354654291197e-06  1.3607641965711334e-05  1.7374441539468247e-05  2.0489391501954539e-05  2.2241788478347093e-05  2.2162837402562022e-05  2.0225676753005374e-05  1.6872669510524379e-05  1.2846606521995388e-05  8.9155841498370005e-06  5.6336588313499400e-06  3.2382122993588184e-06  1.6917922539546735e-06  8.0281598962312047e-07  3.4582121667516348e-07  1.3515304682376855e-07  4.7900294683700980e-08  1.5389057697647263e-08  4.4801405318946174e-09  1.1815169874156124e-09  2.82186968162