<?xml version="1.0"?>
<VTKFile type="UnstructuredGrid"  version="0.1"  >
<UnstructuredGrid>
<Piece  NumberOfPoints="4225" NumberOfCells="8192">
<Points>
<DataArray  type="Float64"  NumberOfComponents="3"  format="ascii">0 0 0  0.015625 0 0  0.03125 0 0  0.046875 0 0  0.0625 0 0  0.078125 0 0  0.09375 0 0  0.109375 0 0  0.125 0 0  0.140625 0 0  0.15625 0 0  0.171875 0 0  0.1875 0 0  0.203125 0 0  0.21875 0 0  0.234375 0 0  0.25 0 0  0.265625 0 0  0.28125 0 0  0.296875 0 0  0.3125 0 0  0.328125 0 0  0.34375 0 0  0.359375 0 0  0.375 0 0  0.390625 0 0  0.40625 0 0  0.421875 0 0  0.4375 0 0  0.453125 0 0  0.46875 0 0  0.484375 0 0  0.5 0 0  0.515625 0 0  0.53125 0 0  0.546875 0 0  0.5625 0 0  0.578125 0 0  0.59375 0 0  0.609375 0 0  0.625 0 0  0.640625 0 0  0.65625 0 0  0.671875 0 0  0.6875 0 0  0.703125 0 0  0.71875 0 0  0.734375 0 0  0.75 0 0  0.765625 0 0  0.78125 0 0  0.796875 0 0  0.8125 0 0  0.828125 0 0  0.84375 0 0  0.859375 0 0  0.875 0 0  0.890625 0 0  0.90625 0 0  0.921875 0 0  0.9375 0 0  0.953125 0 0  0.96875 0 0  0.984375 0 0  1 0 0  0 0.015625 0  0.015625 0.015625 0  0.03125 0.015625 0  0.046875 0.015625 0  0.0625 0.015625 0  0.078125 0.015625 0  0.09375 0.015625 0  0.109375 0.015625 0  0.125 0.015625 0  0.140625 0.015625 0  0.15625 0.015625 0  0.171875 0.015625 0  0.1875 0.015625 0  0.203125 0.015625 0  0.21875 0.015625 0  0.234375 0.015625 0  0.25 0.015625 0  0.265625 0.015625 0  0.28125 0.015625 0  0.296875 0.015625 0  0.3125 0.015625 0  0.328125 0.015625 0  0.34375 0.015625 0  0.359375 0.015625 0  0.375 0.015625 0  0.390625 0.015625 0  0.40625 0.015625 0  0.421875 0.015625 0  0.4375 0.015625 0  0.453125 0.015625 0  0.46875 0.015625 0  0.484375 0.015625 0  0.5 0.015625 0  0.515625 0.015625 0  0.53125 0.015625 0  0.546875 0.015625 0  0.5625 0.015625 0  0.578125 0.015625 0  0.59375 0.015625 0  0.609375 0.015625 0  0.625 0.015625 0  0.640625 0.015625 0  0.65625 0.015625 0  0.671875 0.015625 0  0.6875 0.015625 0  0.703125 0.015625 0  0.71875 0.015625 0  0.734375 0.015625 0  0.75 0.015625 0  0.765625 0.015625 0  0.78125 0.015625 0  0.796875 0.015625 0  0.8125 0.015625 0  0.828125 0.015625 0  0.84375 0.015625 0  0.859375 0.015625 0  0.875 0.015625 0  0.890625 0.015625 0  0.90625 0.015625 0  0.921875 0.015625 0  0.9375 0.015625 0  0.953125 0.015625 0  0.96875 0.015625 0  0.984375 0.015625 0  1 0.015625 0  0 0.03125 0  0.015625 0.03125 0  0.03125 0.03125 0  0.046875 0.03125 0  0.0625 0.03125 0  0.078125 0.03125 0  0.09375 0.03125 0  0.109375 0.03125 0  0.125 0.03125 0  0.140625 0.03125 0  0.15625 0.03125 0  0.171875 0.03125 0  0.1875 0.03125 0  0.203125 0.03125 0  0.21875 0.03125 0  0.234375 0.03125 0  0.25 0.03125 0  0.265625 0.03125 0  0.28125 0.03125 0  0.296875 0.03125 0  0.3125 0.03125 0  0.328125 0.03125 0  0.34375 0.03125 0  0.359375 0.03125 0  0.375 0.03125 0  0.390625 0.03125 0  0.40625 0.03125 0  0.421875 0.03125 0  0.4375 0.03125 0  0.453125 0.03125 0  0.46875 0.03125 0  0.484375 0.03125 0  0.5 0.03125 0  0.515625 0.03125 0  0.53125 0.03125 0  0.546875 0.03125 0  0.5625 0.03125 0  0.578125 0.03125 0  0.59375 0.03125 0  0.609375 0.03125 0  0.625 0.03125 0  0.640625 0.03125 0  0.65625 0.03125 0  0.671875 0.03125 0  0.6875 0.03125 0  0.703125 0.03125 0  0.71875 0.03125 0  0.734375 0.03125 0  0.75 0.03125 0  0.765625 0.03125 0  0.78125 0.03125 0  0.796875 0.03125 0  0.8125 0.03125 0  0.828125 0.03125 0  0.84375 0.03125 0  0.859375 0.03125 0  0.875 0.03125 0  0.890625 0.03125 0  0.90625 0.03125 0  0.921875 0.03125 0  0.9375 0.03125 0  0.953125 0.03125 0  0.96875 0.03125 0  0.984375 0.03125 0  1 0.03125 0  0 0.046875 0  0.015625 0.046875 0  0.03125 0.046875 0  0.046875 0.046875 0  0.0625 0.046875 0  0.078125 0.046875 0  0.09375 0.046875 0  0.109375 0.046875 0  0.125 0.046875 0  0.140625 0.046875 0  0.15625 0.046875 0  0.171875 0.046875 0  0.1875 0.046875 0  0.203125 0.046875 0  0.21875 0.046875 0  0.234375 0.046875 0  0.25 0.046875 0  0.265625 0.046875 0  0.28125 0.046875 0  0.296875 0.046875 0  0.3125 0.046875 0  0.328125 0.046875 0  0.34375 0.046875 0  0.359375 0.046875 0  0.375 0.046875 0  0.390625 0.046875 0  0.40625 0.046875 0  0.421875 0.046875 0  0.4375 0.046875 0  0.453125 0.046875 0  0.46875 0.046875 0  0.484375 0.046875 0  0.5 0.046875 0  0.515625 0.046875 0  0.53125 0.046875 0  0.546875 0.046875 0  0.5625 0.046875 0  0.578125 0.046875 0  0.59375 0.046875 0  0.609375 0.046875 0  0.625 0.046875 0  0.640625 0.046875 0  0.65625 0.046875 0  0.671875 0.046875 0  0.6875 0.046875 0  0.703125 0.046875 0  0.71875 0.046875 0  0.734375 0.046875 0  0.75 0.046875 0  0.765625 0.046875 0  0.78125 0.046875 0  0.796875 0.046875 0  0.8125 0.046875 0  0.828125 0.046875 0  0.84375 0.046875 0  0.859375 0.046875 0  0.875 0.046875 0  0.890625 0.046875 0  0.90625 0.046875 0  0.921875 0.046875 0  0.9375 0.046875 0  0.953125 0.046875 0  0.96875 0.046875 0  0.984375 0.046875 0  1 0.046875 0  0 0.0625 0  0.015625 0.0625 0  0.03125 0.0625 0  0.046875 0.0625 0  0.0625 0.0625 0  0.078125 0.0625 0  0.09375 0.0625 0  0.109375 0.0625 0  0.125 0.0625 0  0.140625 0.0625 0  0.15625 0.0625 0  0.171875 0.0625 0  0.1875 0.0625 0  0.203125 0.0625 0  0.21875 0.0625 0  0.234375 0.0625 0  0.25 0.0625 0  0.265625 0.0625 0  0.28125 0.0625 0  0.296875 0.0625 0  0.3125 0.0625 0  0.328125 0.0625 0  0.34375 0.0625 0  0.359375 0.0625 0  0.375 0.0625 0  0.390625 0.0625 0  0.40625 0.0625 0  0.421875 0.0625 0  0.4375 0.0625 0  0.453125 0.0625 0  0.46875 0.0625 0  0.484375 0.0625 0  0.5 0.0625 0  0.515625 0.0625 0  0.53125 0.0625 0  0.546875 0.0625 0  0.5625 0.0625 0  0.578125 0.0625 0  0.59375 0.0625 0  0.609375 0.0625 0  0.625 0.0625 0  0.640625 0.0625 0  0.65625 0.0625 0  0.671875 0.0625 0  0.6875 0.0625 0  0.703125 0.0625 0  0.71875 0.0625 0  0.734375 0.0625 0  0.75 0.0625 0  0.765625 0.0625 0  0.78125 0.0625 0  0.796875 0.0625 0  0.8125 0.0625 0  0.828125 0.0625 0  0.84375 0.0625 0  0.859375 0.0625 0  0.875 0.0625 0  0.890625 0.0625 0  0.90625 0.0625 0  0.921875 0.0625 0  0.9375 0.0625 0  0.953125 0.0625 0  0.96875 0.0625 0  0.984375 0.0625 0  1 0.0625 0  0 0.078125 0  0.015625 0.078125 0  0.03125 0.078125 0  0.046875 0.078125 0  0.0625 0.078125 0  0.078125 0.078125 0  0.09375 0.078125 0  0.109375 0.078125 0  0.125 0.078125 0  0.140625 0.078125 0  0.15625 0.078125 0  0.171875 0.078125 0  0.1875 0.078125 0  0.203125 0.078125 0  0.21875 0.078125 0  0.234375 0.078125 0  0.25 0.078125 0  0.265625 0.078125 0  0.28125 0.078125 0  0.296875 0.078125 0  0.3125 0.078125 0  0.328125 0.078125 0  0.34375 0.078125 0  0.359375 0.078125 0  0.375 0.078125 0  0.390625 0.078125 0  0.40625 0.078125 0  0.421875 0.078125 0  0.4375 0.078125 0  0.453125 0.078125 0  0.46875 0.078125 0  0.484375 0.078125 0  0.5 0.078125 0  0.515625 0.078125 0  0.53125 0.078125 0  0.546875 0.078125 0  0.5625 0.078125 0  0.578125 0.078125 0  0.59375 0.078125 0  0.609375 0.078125 0  0.625 0.078125 0  0.640625 0.078125 0  0.65625 0.078125 0  0.671875 0.078125 0  0.6875 0.078125 0  0.703125 0.078125 0  0.71875 0.078125 0  0.734375 0.078125 0  0.75 0.078125 0  0.765625 0.078125 0  0.78125 0.078125 0  0.796875 0.078125 0  0.8125 0.078125 0  0.828125 0.078125 0  0.84375 0.078125 0  0.859375 0.078125 0  0.875 0.078125 0  0.890625 0.078125 0  0.90625 0.078125 0  0.921875 0.078125 0  0.9375 0.078125 0  0.953125 0.078125 0  0.96875 0.078125 0  0.984375 0.078125 0  1 0.078125 0  0 0.09375 0  0.015625 0.09375 0  0.03125 0.09375 0  0.046875 0.09375 0  0.0625 0.09375 0  0.078125 0.09375 0  0.09375 0.09375 0  0.109375 0.09375 0  0.125 0.09375 0  0.140625 0.09375 0  0.15625 0.09375 0  0.171875 0.09375 0  0.1875 0.09375 0  0.203125 0.09375 0  0.21875 0.09375 0  0.234375 0.09375 0  0.25 0.09375 0  0.265625 0.09375 0  0.28125 0.09375 0  0.296875 0.09375 0  0.3125 0.09375 0  0.328125 0.09375 0  0.34375 0.09375 0  0.359375 0.09375 0  0.375 0.09375 0  0.390625 0.09375 0  0.40625 0.09375 0  0.421875 0.09375 0  0.4375 0.09375 0  0.453125 0.09375 0  0.46875 0.09375 0  0.484375 0.09375 0  0.5 0.09375 0  0.515625 0.09375 0  0.53125 0.09375 0  0.546875 0.09375 0  0.5625 0.09375 0  0.578125 0.09375 0  0.59375 0.09375 0  0.609375 0.09375 0  0.625 0.09375 0  0.640625 0.09375 0  0.65625 0.09375 0  0.671875 0.09375 0  0.6875 0.09375 0  0.703125 0.09375 0  0.71875 0.09375 0  0.734375 0.09375 0  0.75 0.09375 0  0.765625 0.09375 0  0.78125 0.09375 0  0.796875 0.09375 0  0.8125 0.09375 0  0.828125 0.09375 0  0.84375 0.09375 0  0.859375 0.09375 0  0.875 0.09375 0  0.890625 0.09375 0  0.90625 0.09375 0  0.921875 0.09375 0  0.9375 0.09375 0  0.953125 0.09375 0  0.96875 0.09375 0  0.984375 0.09375 0  1 0.09375 0  0 0.109375 0  0.015625 0.109375 0  0.03125 0.109375 0  0.046875 0.109375 0  0.0625 0.109375 0  0.078125 0.109375 0  0.09375 0.109375 0  0.109375 0.109375 0  0.125 0.109375 0  0.140625 0.109375 0  0.15625 0.109375 0  0.171875 0.109375 0  0.1875 0.109375 0  0.203125 0.109375 0  0.21875 0.109375 0  0.234375 0.109375 0  0.25 0.109375 0  0.265625 0.109375 0  0.28125 0.109375 0  0.296875 0.109375 0  0.3125 0.109375 0  0.328125 0.109375 0  0.34375 0.109375 0  0.359375 0.109375 0  0.375 0.109375 0  0.390625 0.109375 0  0.40625 0.109375 0  0.421875 0.109375 0  0.4375 0.109375 0  0.453125 0.109375 0  0.46875 0.109375 0  0.484375 0.109375 0  0.5 0.109375 0  0.515625 0.109375 0  0.53125 0.109375 0  0.546875 0.109375 0  0.5625 0.109375 0  0.578125 0.109375 0  0.59375 0.109375 0  0.609375 0.109375 0  0.625 0.109375 0  0.640625 0.109375 0  0.65625 0.109375 0  0.671875 0.109375 0  0.6875 0.109375 0  0.703125 0.109375 0  0.71875 0.109375 0  0.734375 0.109375 0  0.75 0.109375 0  0.765625 0.109375 0  0.78125 0.109375 0  0.796875 0.109375 0  0.8125 0.109375 0  0.828125 0.109375 0  0.84375 0.109375 0  0.859375 0.109375 0  0.875 0.109375 0  0.890625 0.109375 0  0.90625 0.109375 0  0.921875 0.109375 0  0.9375 0.109375 0  0.953125 0.109375 0  0.96875 0.109375 0  0.984375 0.109375 0  1 0.109375 0  0 0.125 0  0.015625 0.125 0  0.03125 0.125 0  0.046875 0.125 0  0.0625 0.125 0  0.078125 0.125 0  0.09375 0.125 0  0.109375 0.125 0  0.125 0.12
[...]
<PointData  Scalars="f_4824"> 
<DataArray  type="Float64"  Name="f_4824"  format="ascii">-5.2766368905339739e-15  -5.4358395224331386e-15  -5.6734179031167951e-15  -5.9317039902138174e-15  -6.1908563832777285e-15  -6.4513857943473825e-15  -6.7130338945161761e-15  -6.9760614472491589e-15  -7.2407710027214164e-15  -7.5075059520881498e-15  -7.7765476102181494e-15  -8.0479454821026427e-15  -8.3211879574599470e-15  -8.5945785002269525e-15  -8.8641042604144413e-15  -9.1215442500516242e-15  -9.3516665178196017e-15  -9.5288091046951152e-15  -9.6140424174682021e-15  -9.5552893430157348e-15  -9.2934433821898723e-15  -8.7763916332356324e-15  -7.9791254162272183e-15  -6.9229118746851317e-15  -5.6832586046318538e-15  -4.3789211908296083e-15  -3.1429362381270447e-15  -2.0868382382652461e-15  -1.2736911974815347e-15  -7.1072581871982565e-16  -3.6155656516659064e-16  -1.6868333693726280e-16  -7.4699159083340499e-17  -3.4949313995758861e-17  -2.0790758829949897e-17  -1.6805271888773539e-17  -1.6051811232862568e-17  -1.5991299159944079e-17  -1.5937212776576867e-17  -1.5807276957919572e-17  -1.5645340204832443e-17  -1.5489264190973499e-17  -1.5355130002111020e-17  -1.5246037488635972e-17  -1.5159904851456969e-17  -1.5093237201078436e-17  -1.5042507279714597e-17  -1.5004557593656820e-17  -1.4976679157092905e-17  -1.4956598853790266e-17  -1.4942443429574009e-17  -1.4932697403150121e-17  -1.4926159177545950e-17  -1.4921896941537778e-17  -1.4919205569775166e-17  -1.4917565694412288e-17  -1.4916606025146858e-17  -1.4916069788682184e-17  -1.4915785869504305e-17  -1.4915644904057084e-17  -1.4915580255098605e-17  -1.4915553510890436e-17  -1.4915543944212734e-17  -1.4915541243677498e-17  -1.4915540795324276e-17  -5.2811505746255641e-15  -5.4252438403620657e-15  -5.6742420153672251e-15  -5.9314751511673382e-15  -6.1908931259278907e-15  -6.4513913161735291e-15  -6.7130385243259170e-15  -6.9760364100076704e-15  -7.2406752341801921e-15  -7.5072485424092121e-15  -7.7759297117462479e-15  -8.0465226465610768e-15  -8.3179504507180331e-15  -8.5872104909164387e-15  -8.8473296948375958e-15  -9.0836913138594456e-15  -9.2682703386703420e-15  -9.3524146716786660e-15  -9.2612941009778439e-15  -8.8965340391811145e-15  -8.1551614355083983e-15  -6.9685251564816202e-15  -5.3521330619938585e-15  -3.4417103421510683e-15  -1.4855803528379083e-15  2.1968489151344287e-16  1.4291090125178459e-15  2.0353813872574684e-15  2.0949300815267684e-15  1.7833103736751485e-15  1.3109029998748461e-15  8.4689246983208266e-16  4.8363244435335778e-16  2.4290941757546672e-16  1.0436181895923479e-16  3.4206386186525136e-17  2.7602993377154484e-18  -9.7155742918357744e-18  -1.4043647930087528e-17  -1.5290489622245089e-17  -1.5517622831433762e-17  -1.5460505310035867e-17  -1.5349050913138987e-17  -1.5244665052612530e-17  -1.5159440271966815e-17  -1.5092958440252178e-17  -1.5042289049854579e-17  -1.5004377970889906e-17  -1.4976532122502987e-17  -1.4956480500156139e-17  -1.4942350069046919e-17  -1.4932625400048423e-17  -1.4926105011899759e-17  -1.4921857299292091e-17  -1.4919177426086184e-17  -1.4917546378553989e-17  -1.4916593260786228e-17  -1.4916061707209234e-17  -1.4915780997552162e-17  -1.4915642129337146e-17  -1.4915578776510890e-17  -1.4915552779745315e-17  -1.4915543603425184e-17  -1.4915541072072108e-17  -1.4915540664184113e-17  -5.2793876849846334e-15  -5.4186322749997364e-15  -5.6745741954661248e-15  -5.9313569262089711e-15  -6.1909091284276823e-15  -6.4513937372980940e-15  -6.7130287497461686e-15  -6.9759835078767702e-15  -7.2405168778434982e-15  -7.5068328969218632e-15  -7.7748549807129579e-15  -8.0436253972419499e-15  -8.3096879881066604e-15  -8.5628491252094781e-15  -8.7759583596615473e-15  -8.8832003325607802e-15  -8.7412711864266959e-15  -8.0750949813055079e-15  -6.4303605836525291e-15  -3.1862965116734990e-15  2.2996848374154127e-15  1.0380043313927728e-14  2.0716567191985424e-14  3.2013216510274616e-14  4.2148345132828365e-14  4.8805530396898047e-14  5.0374912910706004e-14  4.6646665815751889e-14  3.8883492437439689e-14  2.9233231341977379e-14  1.9844219535371966e-14  1.2170167510131729e-14  6.7442705418519876e-15  3.3755447256580094e-15  1.5229559227253097e-15  6.1560032973029558e-16  2.1840957416285187e-16  6.2675648117880663e-17  7.9488789678346915e-18  -9.2439159715459802e-18  -1.4013038572428067e-17  -1.5121502132585837e-17  -1.5279713326096861e-17  -1.5231621580481342e-17  -1.5157027413839005e-17  -1.5092385400587491e-17  -1.5042030571770632e-17  -1.5004193334270941e-17  -1.4976384493526006e-17  -1.4956362060349013e-17  -1.4942256683629317e-17  -1.4932553387276150e-17  -1.4926050846764410e-17  -1.4921817665854252e-17  -1.4919149297403324e-17  -1.4917527081544449e-17  -1.4916580516766346e-17  -1.4916053645429263e-17  -1.4915776142829474e-17  -1.4915639367723134e-17  -1.4915577304801813e-17  -1.4915552045824061e-17  -1.4915543245704916e-17  -1.4915540867644986e-17  -1.4915540493769478e-17  -5.2759041813257814e-15  -5.4142933426341060e-15  -5.6746836527769161e-15  -5.9312886997535193e-15  -6.1909128954141580e-15  -6.4513900962712818e-15  -6.7130028267364338e-15  -6.9758857841683653e-15  -7.2402075579874658e-15  -7.5058242883740774e-15  -7.7712442229286347e-15  -8.0299161500414760e-15  -8.2579290951670577e-15  -8.3774717834574816e-15  -8.1618577561503762e-15  -7.0243319847539660e-15  -3.6291038377298159e-15  4.6639651813728097e-15  2.2296482618688670e-14  5.5399930587149162e-14  1.1033063388429287e-13  1.9047906552304931e-13  2.9216790571086783e-13  4.0194315346321413e-13  4.9801207712387306e-13  5.5683103885043763e-13  5.6243340342224148e-13  5.1350510667501665e-13  4.2394327082178651e-13  3.1656961242967280e-13  2.1384812902893673e-13  1.3069808499410773e-13  7.2275539468015862e-14  3.6163615693813894e-14  1.6369932752827591e-14  6.7000917491525489e-15  2.4751282410050044e-15  8.2019513952939288e-16  2.3807375432698914e-16  5.4022220876817739e-17  1.7267678014445637e-18  -1.1577925041541092e-17  -1.4557653088168294e-17  -1.5098296183181016e-17  -1.5134563268761666e-17  -1.5088788852283793e-17  -1.5041359720949205e-17  -1.5003957802021794e-17  -1.4976231155154134e-17  -1.4956243018730543e-17  -1.4942163226217853e-17  -1.4932481360846448e-17  -1.4925996681759948e-17  -1.4921778041138287e-17  -1.4919121183666112e-17  -1.4917507803304966e-17  -1.4916567792936283e-17  -1.4916045603026370e-17  -1.4915771304583620e-17  -1.4915636617301480e-17  -1.4915575835543148e-17  -1.4915551300928876e-17  -1.4915542859908210e-17  -1.4915540620168236e-17  -1.4915540275073289e-17  -5.2723959793403436e-15  -5.4113267127155757e-15  -5.6746924247403940e-15  -5.9312463813509805e-15  -6.1909123811814445e-15  -6.4513763397055129e-15  -6.7129348250814680e-15  -6.9756152853154809e-15  -7.2390510066809101e-15  -7.5004340176713098e-15  -7.7459760841931969e-15  -7.9176738825105798e-15  -7.7985612024821106e-15  -6.6653111174560411e-15  -2.3773757683012815e-15  1.0655745807202462e-14  4.5220855060081798e-14  1.2664124457754310e-13  2.9752888812341167e-13  6.1663334309830030e-13  1.1446417863468521e-12  1.9134365875359190e-12  2.8867713902789208e-12  3.9345866594862165e-12  4.8473190795674287e-12  5.3995470555453024e-12  5.4395258409835362e-12  4.9566108198548161e-12  4.0858916320774209e-12  3.0473011726660861e-12  2.0564138765858974e-12  1.2557548630594764e-12  6.9394231523947456e-13  3.4704217920921558e-13  1.5706718006276736e-13  6.4329944540616778e-14  2.3838776645407811e-14  7.9875979115272137e-15  2.4142436732897339e-15  6.5194953728446403e-16  1.5038979811707870e-16  2.1866760390564115e-17  -7.7500356265913290e-18  -1.3844507454822094e-17  -1.4925490146281487e-17  -1.5057082673638938e-17  -1.5036859601468418e-17  -1.5003250546895425e-17  -1.4976025248244703e-17  -1.4956118658402463e-17  -1.4942069267529697e-17  -1.4932409285350609e-17  -1.4925942514165606e-17  -1.4921738424885142e-17  -1.4919093084773758e-17  -1.4917488543699490e-17  -1.4916555089040137e-17  -1.4916037579417428e-17  -1.4915766481336581e-17  -1.4915633874556155e-17  -1.4915574361766004e-17  -1.4915550534220874e-17  -1.4915542433265614e-17  -1.4915540317994782e-17  -1.4915539997401270e-17  -5.2694023688680102e-15  -5.4092412887124923e-15  -5.6746633651694725e-15  -5.9312165012493593e-15  -6.1908967646804761e-15  -6.4513201184755035e-15  -6.7126811052645728e-15  -6.9742432102011932e-15  -7.2312740878764232e-15  -7.4581899895706528e-15  -7.5340811600164360e-15  -6.9497810745360911e-15  -3.7932056195897260e-15  8.3222552283540533e-15  4.8298263112971373e-14  1.6544989261296081e-13  4.7238148847901905e-13  1.1916199993136311e-12  2.6966550580442324e-12  5.5007475039845231e-12  1.0131367297907268e-11  1.6860781514095696e-11  2.5363719074502902e-11  3.4496719104318477e-11  4.2427849308107939e-11  4.7195257060217415e-11  4.7487274027668053e-11  4.3225351993130660e-11  3.5598125715479114e-11  2.6526626148325893e-11  1.7886946817489921e-11  1.0914821272296496e-11  6.0275918951444999e-12  3.0125333507053777e-12  1.3626604229643596e-12  5.5784007161371606e-13  2.0667302336366244e-13  6.9289422781008234e-14  2.1014785408301556e-14  5.7592342488240280e-15  1.4193181040900297e-15  3.0712074625216775e-16  5.0264278989771211e-17  -3.1709353069316393e-18  -1.3149068710510893e-17  -1.4789519434396234e-17  -1.5000264476705983e-17  -1.4998594363568888e-17  -1.4975380058482325e-17  -1.4955950102913003e-17  -1.4941971275088019e-17  -1.4932336870611821e-17  -1.4925888322349296e-17  -1.4921698815543473e-17  -1.4919065000503733e-17  -1.4917469302503800e-17  -1.4916542404622557e-17  -1.4916029573483685e-17  -1.4915761670365949e-17  -1.4915631133747579e-17  -1.4915572873605695e-17  -1.4915549732240842e-17  -1.4915541951228155e-17  -1.4915539947772178e-17  -1.4915539648151257e-17  -5.2670247885962071e-15  -5.4077371638183648e-15  -5.6746068217055929e-15  -5.9311762709965318e-15  -6.1908517381691379e-15  -6.4510987248161769e-15  -6.7111914839269258e-15  -6.9644440643210740e-15  -7.1713901386985609e-15  -7.1239085763569036e-15  -5.8419711644370865e-15  7.9602016234403504e-16  2.8241813813404586e-14  1.2799371858116213e-13  4.5208618082730345e-13  1.3961276214164768e-12  3.8609257748914113e-12  9.6214427957034161e-12  2.1647285482505435e-11  4.4003756510317369e-11  8.0844165131105577e-11  1.3426931460133825e-10  2.0162782333919810e-10  2.7380205692744423e-10  3.3627640601873518e-10  3.7358145957463794e-10  3.7545183286623703e-10  3.4138836454353300e-10  2.8087228813968083e-10  2.0910728567527829e-10  1.4088280677482893e-10  8.5900901268163791e-11  4.7402844650664024e-11  2.3674877007057093e-11  1.0701654053919771e-11  4.3781486326520187e-12  1.6210482422708103e-12  5.4318477442668391e-13  1.6470581157138507e-13  4.5184829109597258e-14  1.1207338872447217e-14  2.5056950782057124e-15  4.9702431600245954e-16  7.8948968666266206e-17  5.0362853475416824e-19  -1.2736645050512892e-17  -1.4720993433926345e-17  -1.4964114295720578e-17  -1.4971421455775661e-17  -1.4955448785073727e-17  -1.4941843063858168e-17  -1.4932261969297440e-17  -1.4925833947080795e-17  -1.4921659202317101e-17  -1.4919036930010696e-17  -1.4917450079316412e-17  -1.4916529738838914e-17  -1.4916021583164291e-17  -1.4915756867100933e-17  -1.4915628386345429e-17  -1.4915571358046349e-17  -1.4915548878873156e-17  -1.4915541397256609e-17  -1.4915539494151184e-17  -1.4915539212570100e-17  -5.2651578868154042e-15  -5.4066228269362691e-15  -5.6745470304649006e-15  -5.9311449681781370e-15  -6.1906793811625261e-15  -6.4496846595238557e-15  -6.7007780296159718e-15  -6.8938044258059170e-15  -6.7347668785367192e-15  -4.6803849514893256e-15  6.5152499561602072e-15  5.7237477837923469e-14  2.6105670720398090e-13  9.9531398384317770e-13  3.3705145576325657e-12  1.0267187942940362e-11  2.8223410051206055e-11  7.0079406854335710e-11  1.5724103885546061e-10  3.1888740320398321e-10  5.8463392617136166e-10  9.6911729920356882e-10  1.4527129990565384e-09  1.9694984981814929e-09  2.4152422386199597e-09  2.6794589129512970e-09  2.6894405766791559e-09  2.4425693746693172e-09  2.0074184730773432e-09  1.4930178110538265e-09  1.0049674885446478e-09  6.1223284202117891e-10  3.3757487854961136e-10  1.6846800324245771e-10  7.6095171239918940e-11  3.1108662803892363e-11  1.1510019776327675e-11  3.8540803155950516e-12  1.1678513797384309e-12  3.2021144063100497e-13  7.9431917444049473e-14  1.7817307368540974e-14  3.6056572585623152e-15  6.4981961278984490e-16  9.5318178340437565e-17  1.5040907785379361e-18  -1.2786867303297337e-17  -1.4726494213829998e-17  -1.4944921403397079e-17  -1.4952686613247041e-17  -1.4941509902524934e-17  -1.4932170271878674e-17  -1.4925778329334029e-17  -1.4921619514214850e-17  -1.4919008868708045e-17  -1.4917430873260645e-17  -1.4916517090140657e-17  -1.4916013604927066e-17  -1.4915752064481414e-17  -1.4915625620532267e-17  -1.4915569798719466e-17  -1.4915547955249885e-17  -1.4915540752566878e-17  -1.4915538939484115e-17  -1.4915538673487043e-17  -5.2637595563592194e-15  -5.4058266699507707e-15  -5.6745006160579983e-15  -5.9309888313841251e-15  -6.1895108639684118e-15  -6.4404722319835165e-15  -6.6317699199534999e-15  -6.4222059856706081e-15  -3.8197033594226527e-15  1.1594566399516705e-14  8.8566832193443459e-14  4.3078769399840759e-13  1.7968742793118317e-12  6.6983949141889765e-12  2.2500681663727124e-11  6.8241174687234520e-11  1.8697649736285516e-10  4.6295691726582263e-10  1.0360814376710684e-09  2.0961509802966144e-09  3.8343986938148169e-09  6.3428581765312767e-09  9.4896218388671270e-09  1.2842448615876906e-08  1.5723016478850211e-08  1.7416540004294641e-08  1.7456983492272130e-08  1.5834171060481385e-08  1.2997856687526474e-08  9.6565882925836685e-09  6.4933712047885658e-09  3.9520635236550097e-09  2.1771633988298221e-09  1.0856040440936727e-09  4.8995795077115981e-10  2.0014305585961938e-10  7.3994256140257891e-11  2.4757501556827424e-11  7.4961241540123496e-12  2.0537689100527177e-12  5.0910310362660830e-13  1.1416354605608450e-13  2.3148421587786737e-14  4.2352338040477953e-15  6.9021593341262277e-16  9.0761040797219557e-17  -6.7839642598434110e-19  -1.3241365805188910e-17  -1.4780155323414735e-17  -1.4936073623789682e-17  -1.4939922780398292e-17  -1.4931975979513701e-17  -1.4925715128004238e-17  -1.4921579327544171e-17  -1.4918980790544368e-17  -1.4917411681801032e-17  -1.4916504455795604e-17  -1.4916005633142809e-17  -1.4915747252318746e-17  -1.4915622820776020e-17  -1.4915568175723063e-17  -1.4915546939595944e-17  -1.4915539995839291e-17  -1.4915538263509039e-17  -1.4915538011024825e-17  -5.2627099027357750e-15  -5.4051706647528949e-15  -5.6743083349125216e-15  -5.9301780798011936e-15  -6.1828087205101526e-15  -6.3846584200712722e-15  -6.2100040220581440e-15  -3.5448364785481402e-15  1.3905172953090603e-14  1.1018297629198399e-13  5.8371129011264227e-13  2.6764250708530586e-12  1.0995097300113226e-11  4.0730516969126801e-11  1.3625421936960532e-10  4.1180332135202864e-10  1.1247241112039305e-09  2.7765295108692008e-09  6.1963480248614499e-09  1.2503166765135313e-08  2.2815238277224384e-08  3.7654496817448145e-08  5.6215629073507593e-08  7.5928030791920689e-08  9.2790384806015088e-08  1.0261354885430992e-07  1.0269431055629353e-07  9.3016677692214037e-08  7.6256085606391650e-08  5.6585807106557760e-08  3.8007866726790991e-08  2.3108921928999105e-08  1.2718238329440988e-08  6.3359232151198747e-09  2.8570441758297407e-09  1.1660859148733129e-09  4.3075205107230035e-10  1.4400531851241841e-10  4.3566237623277144e-11  1.1926224864692517e-11  2.9538837584422466e-12  6.6186565776117386e-13  1.3413965929980086e-13  2.4578494860719577e-14  4.0622086660901746e-15  5.9615866066155754e-16  6.7808561650776554e-17  -4.8513092415437857e-18  -1.3850974951298770e-17  -1.4842975421825128e-17  -1.4931419489415323e-17  -1.4931216538913382e-17  -1.4925610199038026e-17  -1.4921536364621550e-17  -1.4918952557427997e-17  -1.4917392495488497e-17  -1.4916491831093288e-17  -1.4915997659389836e-17  -1.4915742416684135e-17  -1.4915619967459513e-17  -1.4915566465437455e-17  -1.4915545807019197e-17  -1.4915539102897483e-17  -1.4915537443017246e-17  -1.4915537202286963e-17  -5.2617781235425121e-15  -5.4046401170134296e-15  -5.6739143428609720e-15  -5.9262077831095470e-15  -6.1452698290849906e-15  -6.0714827380869903e-15  -3.8545862624583541e-15  1.2454744906375936e-14  1.1203376888347734e-13  6.5357108726499319e-13  3.3007321035202975e-12  1.4945295172515114e-11  6.1034799475141261e-11  2.2510435071373219e-10  7.5007021672328285e-10  2.2585764959480070e-09  6.1470842088277715e-09  1.5124693375863343e-08  3.3648468853349399e-08  6.7698632687251066e-08  1.2319709679610871e-07  2.0281125743436104e-07  3.0207448070574812e-07  4.0711750474736068e-07  4.9654240404311293e-07  5.4810573048943027e-07  5.4761813631880456e-07  4.9524971241651316e-07  4.0543797549288701e-07  3.0046417474421525e-07  2.0157508490924475e-07  1.2242166521256431e-07  6.7305738572700373e-08  3.3497102551462923e-08  1.5090607273893414e-08  6.1535786991326471e-09  2.2711307494021738e-09  7.5860634651961555e-10  2.2930452495921952e-10  6.2717414393881472e-11  1.5520178134168183e-11  3.4744664913487440e-12  7.0356774074660656e-13  1.2884528557430385e-13  2.1327557352540519e-14  3.1812338718628015e-15  4.1774343160317686e-16  3.7970841276628906e-17  -9.1142424956226575e-18  -1.4369334682970733e-17  -1.4888544688954749e-17  -1.4927651654657200e-17  -1.4925298358691996e-17  -1.4921479619722127e-17  -1.4918923505420792e-17  -1.4917373275020158e-17  -1.4916479207585473e-17  -1.4915989671690292e-17  -1.4915737539337114e-17  -1.4915617036550200e-17  -1.4915564640321161e-17  -1.4915544529250338e-17  -1.4915538046359581e-17  -1.4915536451501841e-17  -1.4915536221021706e-17  -5.2612847670297439e-15  -5.4042234011364846e-15  -5.6718361152994250e-15  -5.9049055513308896e-15  -5.9515216409423486e-15  -4.4677266711073102e-15  8.1513442359492368e-15  9.3601314818676430e-14  6.0715692084056334e-13  3.3811620490508515e-12  1.6869402502673102e-11  7.5908078663389185e-11  3.0846111496772444e-10  1.1324429333822730e-09  3.7570217192028991e-09  1.1266162901670897e-08  3.0542328558807595e-08  7.4869902845385107e-08  1.6598629995382955e-07  3.3286847054762395e-07  6.0391822097544481e-07  9.9140653323598108e-07  1.4728206807589203e-06  1.9802576200554912e-06  2.4099577079227693e-06  2.6549000521494521e-06  2.6476835365776333e-06  2.3904757282535791e-06  1.9539678547028458e-06  1.4460160708431593e-06  9.6884162071520597e-07  5.8769424004899320e-07  3.2274382180621796e-07  1.6045573279842855e-07  7.2213862368748689e-08  2.9418853849285088e-08  1.0847694694432996e-08  3.6200756177315503e-09  1.0932612957792342e-09  2.9875165472129106e-10  7.3863067389935096e-11  1.6520493942119622e-11  3.3422797321040060e-12  6.1154184798640186e-13  1.0117669816357809e-13  1.5124593758606063e-14  2.0328139675818929e-15  2.3540252075234136e-16  1.2700985589249765e-17  -1.2190640920434678e-17  -1.4691830577156761e-17  -1.4911543513259518e-17  -1.4924062362801721e-17  -1.4921361355035738e-17  -1.4918890761241955e-17  -1.4917353859250527e-17  -1.4916466567863973e-17  -1.4915981653594000e-17  -1.4915732597193391e-17  -1.4915613999293545e-17  -1.4915562668676853e-17  -1.4915543074337275e-17  -1.4915536795264054e-17  -1.4915535258785919e-17  -1.4915535037261959e-17  -5.2606821124219423e-15  -5.4028276620714824e-15  -5.6615388375566843e-15  -5.8049783570224502e-15  -5.0401090691460801e-15  3.0510324562337246e-15  6.4115301161351744e-14  4.6955898755449425e-13  2.8871456466120033e-12  1.5865582171141111e-11  7.8604615135401712e-11  3.5166224098965052e-10  1.4213122490473963e-09  5.1910963399870036e-09  1.7137166849258205e-08  5.1148019469722517e-08  1.3804591309452546e-07  3.3698675171269349e-07  7.4418296542621114e-07  1.4869624993221399e-06  2.6886957894337821e-06  4.4001207820727049e-06  6.5180942055924898e-06  8.7408484312830871e-06  1.0612054063073768e-05  1.1665050121043594e-05  1.1610103378048672e-05  1.0463134852870821e-05  8.5382901664407140e-06  6.3090481460260590e-06  4.2211885226082061e-06  2.55