<?xml version="1.0"?>
<VTKFile type="UnstructuredGrid"  version="0.1"  >
<UnstructuredGrid>
<Piece  NumberOfPoints="4225" NumberOfCells="8192">
<Points>
<DataArray  type="Float64"  NumberOfComponents="3"  format="ascii">0 0 0  0.015625 0 0  0.03125 0 0  0.046875 0 0  0.0625 0 0  0.078125 0 0  0.09375 0 0  0.109375 0 0  0.125 0 0  0.140625 0 0  0.15625 0 0  0.171875 0 0  0.1875 0 0  0.203125 0 0  0.21875 0 0  0.234375 0 0  0.25 0 0  0.265625 0 0  0.28125 0 0  0.296875 0 0  0.3125 0 0  0.328125 0 0  0.34375 0 0  0.359375 0 0  0.375 0 0  0.390625 0 0  0.40625 0 0  0.421875 0 0  0.4375 0 0  0.453125 0 0  0.46875 0 0  0.484375 0 0  0.5 0 0  0.515625 0 0  0.53125 0 0  0.546875 0 0  0.5625 0 0  0.578125 0 0  0.59375 0 0  0.609375 0 0  0.625 0 0  0.640625 0 0  0.65625 0 0  0.671875 0 0  0.6875 0 0  0.703125 0 0  0.71875 0 0  0.734375 0 0  0.75 0 0  0.765625 0 0  0.78125 0 0  0.796875 0 0  0.8125 0 0  0.828125 0 0  0.84375 0 0  0.859375 0 0  0.875 0 0  0.890625 0 0  0.90625 0 0  0.921875 0 0  0.9375 0 0  0.953125 0 0  0.96875 0 0  0.984375 0 0  1 0 0  0 0.015625 0  0.015625 0.015625 0  0.03125 0.015625 0  0.046875 0.015625 0  0.0625 0.015625 0  0.078125 0.015625 0  0.09375 0.015625 0  0.109375 0.015625 0  0.125 0.015625 0  0.140625 0.015625 0  0.15625 0.015625 0  0.171875 0.015625 0  0.1875 0.015625 0  0.203125 0.015625 0  0.21875 0.015625 0  0.234375 0.015625 0  0.25 0.015625 0  0.265625 0.015625 0  0.28125 0.015625 0  0.296875 0.015625 0  0.3125 0.015625 0  0.328125 0.015625 0  0.34375 0.015625 0  0.359375 0.015625 0  0.375 0.015625 0  0.390625 0.015625 0  0.40625 0.015625 0  0.421875 0.015625 0  0.4375 0.015625 0  0.453125 0.015625 0  0.46875 0.015625 0  0.484375 0.015625 0  0.5 0.015625 0  0.515625 0.015625 0  0.53125 0.015625 0  0.546875 0.015625 0  0.5625 0.015625 0  0.578125 0.015625 0  0.59375 0.015625 0  0.609375 0.015625 0  0.625 0.015625 0  0.640625 0.015625 0  0.65625 0.015625 0  0.671875 0.015625 0  0.6875 0.015625 0  0.703125 0.015625 0  0.71875 0.015625 0  0.734375 0.015625 0  0.75 0.015625 0  0.765625 0.015625 0  0.78125 0.015625 0  0.796875 0.015625 0  0.8125 0.015625 0  0.828125 0.015625 0  0.84375 0.015625 0  0.859375 0.015625 0  0.875 0.015625 0  0.890625 0.015625 0  0.90625 0.015625 0  0.921875 0.015625 0  0.9375 0.015625 0  0.953125 0.015625 0  0.96875 0.015625 0  0.984375 0.015625 0  1 0.015625 0  0 0.03125 0  0.015625 0.03125 0  0.03125 0.03125 0  0.046875 0.03125 0  0.0625 0.03125 0  0.078125 0.03125 0  0.09375 0.03125 0  0.109375 0.03125 0  0.125 0.03125 0  0.140625 0.03125 0  0.15625 0.03125 0  0.171875 0.03125 0  0.1875 0.03125 0  0.203125 0.03125 0  0.21875 0.03125 0  0.234375 0.03125 0  0.25 0.03125 0  0.265625 0.03125 0  0.28125 0.03125 0  0.296875 0.03125 0  0.3125 0.03125 0  0.328125 0.03125 0  0.34375 0.03125 0  0.359375 0.03125 0  0.375 0.03125 0  0.390625 0.03125 0  0.40625 0.03125 0  0.421875 0.03125 0  0.4375 0.03125 0  0.453125 0.03125 0  0.46875 0.03125 0  0.484375 0.03125 0  0.5 0.03125 0  0.515625 0.03125 0  0.53125 0.03125 0  0.546875 0.03125 0  0.5625 0.03125 0  0.578125 0.03125 0  0.59375 0.03125 0  0.609375 0.03125 0  0.625 0.03125 0  0.640625 0.03125 0  0.65625 0.03125 0  0.671875 0.03125 0  0.6875 0.03125 0  0.703125 0.03125 0  0.71875 0.03125 0  0.734375 0.03125 0  0.75 0.03125 0  0.765625 0.03125 0  0.78125 0.03125 0  0.796875 0.03125 0  0.8125 0.03125 0  0.828125 0.03125 0  0.84375 0.03125 0  0.859375 0.03125 0  0.875 0.03125 0  0.890625 0.03125 0  0.90625 0.03125 0  0.921875 0.03125 0  0.9375 0.03125 0  0.953125 0.03125 0  0.96875 0.03125 0  0.984375 0.03125 0  1 0.03125 0  0 0.046875 0  0.015625 0.046875 0  0.03125 0.046875 0  0.046875 0.046875 0  0.0625 0.046875 0  0.078125 0.046875 0  0.09375 0.046875 0  0.109375 0.046875 0  0.125 0.046875 0  0.140625 0.046875 0  0.15625 0.046875 0  0.171875 0.046875 0  0.1875 0.046875 0  0.203125 0.046875 0  0.21875 0.046875 0  0.234375 0.046875 0  0.25 0.046875 0  0.265625 0.046875 0  0.28125 0.046875 0  0.296875 0.046875 0  0.3125 0.046875 0  0.328125 0.046875 0  0.34375 0.046875 0  0.359375 0.046875 0  0.375 0.046875 0  0.390625 0.046875 0  0.40625 0.046875 0  0.421875 0.046875 0  0.4375 0.046875 0  0.453125 0.046875 0  0.46875 0.046875 0  0.484375 0.046875 0  0.5 0.046875 0  0.515625 0.046875 0  0.53125 0.046875 0  0.546875 0.046875 0  0.5625 0.046875 0  0.578125 0.046875 0  0.59375 0.046875 0  0.609375 0.046875 0  0.625 0.046875 0  0.640625 0.046875 0  0.65625 0.046875 0  0.671875 0.046875 0  0.6875 0.046875 0  0.703125 0.046875 0  0.71875 0.046875 0  0.734375 0.046875 0  0.75 0.046875 0  0.765625 0.046875 0  0.78125 0.046875 0  0.796875 0.046875 0  0.8125 0.046875 0  0.828125 0.046875 0  0.84375 0.046875 0  0.859375 0.046875 0  0.875 0.046875 0  0.890625 0.046875 0  0.90625 0.046875 0  0.921875 0.046875 0  0.9375 0.046875 0  0.953125 0.046875 0  0.96875 0.046875 0  0.984375 0.046875 0  1 0.046875 0  0 0.0625 0  0.015625 0.0625 0  0.03125 0.0625 0  0.046875 0.0625 0  0.0625 0.0625 0  0.078125 0.0625 0  0.09375 0.0625 0  0.109375 0.0625 0  0.125 0.0625 0  0.140625 0.0625 0  0.15625 0.0625 0  0.171875 0.0625 0  0.1875 0.0625 0  0.203125 0.0625 0  0.21875 0.0625 0  0.234375 0.0625 0  0.25 0.0625 0  0.265625 0.0625 0  0.28125 0.0625 0  0.296875 0.0625 0  0.3125 0.0625 0  0.328125 0.0625 0  0.34375 0.0625 0  0.359375 0.0625 0  0.375 0.0625 0  0.390625 0.0625 0  0.40625 0.0625 0  0.421875 0.0625 0  0.4375 0.0625 0  0.453125 0.0625 0  0.46875 0.0625 0  0.484375 0.0625 0  0.5 0.0625 0  0.515625 0.0625 0  0.53125 0.0625 0  0.546875 0.0625 0  0.5625 0.0625 0  0.578125 0.0625 0  0.59375 0.0625 0  0.609375 0.0625 0  0.625 0.0625 0  0.640625 0.0625 0  0.65625 0.0625 0  0.671875 0.0625 0  0.6875 0.0625 0  0.703125 0.0625 0  0.71875 0.0625 0  0.734375 0.0625 0  0.75 0.0625 0  0.765625 0.0625 0  0.78125 0.0625 0  0.796875 0.0625 0  0.8125 0.0625 0  0.828125 0.0625 0  0.84375 0.0625 0  0.859375 0.0625 0  0.875 0.0625 0  0.890625 0.0625 0  0.90625 0.0625 0  0.921875 0.0625 0  0.9375 0.0625 0  0.953125 0.0625 0  0.96875 0.0625 0  0.984375 0.0625 0  1 0.0625 0  0 0.078125 0  0.015625 0.078125 0  0.03125 0.078125 0  0.046875 0.078125 0  0.0625 0.078125 0  0.078125 0.078125 0  0.09375 0.078125 0  0.109375 0.078125 0  0.125 0.078125 0  0.140625 0.078125 0  0.15625 0.078125 0  0.171875 0.078125 0  0.1875 0.078125 0  0.203125 0.078125 0  0.21875 0.078125 0  0.234375 0.078125 0  0.25 0.078125 0  0.265625 0.078125 0  0.28125 0.078125 0  0.296875 0.078125 0  0.3125 0.078125 0  0.328125 0.078125 0  0.34375 0.078125 0  0.359375 0.078125 0  0.375 0.078125 0  0.390625 0.078125 0  0.40625 0.078125 0  0.421875 0.078125 0  0.4375 0.078125 0  0.453125 0.078125 0  0.46875 0.078125 0  0.484375 0.078125 0  0.5 0.078125 0  0.515625 0.078125 0  0.53125 0.078125 0  0.546875 0.078125 0  0.5625 0.078125 0  0.578125 0.078125 0  0.59375 0.078125 0  0.609375 0.078125 0  0.625 0.078125 0  0.640625 0.078125 0  0.65625 0.078125 0  0.671875 0.078125 0  0.6875 0.078125 0  0.703125 0.078125 0  0.71875 0.078125 0  0.734375 0.078125 0  0.75 0.078125 0  0.765625 0.078125 0  0.78125 0.078125 0  0.796875 0.078125 0  0.8125 0.078125 0  0.828125 0.078125 0  0.84375 0.078125 0  0.859375 0.078125 0  0.875 0.078125 0  0.890625 0.078125 0  0.90625 0.078125 0  0.921875 0.078125 0  0.9375 0.078125 0  0.953125 0.078125 0  0.96875 0.078125 0  0.984375 0.078125 0  1 0.078125 0  0 0.09375 0  0.015625 0.09375 0  0.03125 0.09375 0  0.046875 0.09375 0  0.0625 0.09375 0  0.078125 0.09375 0  0.09375 0.09375 0  0.109375 0.09375 0  0.125 0.09375 0  0.140625 0.09375 0  0.15625 0.09375 0  0.171875 0.09375 0  0.1875 0.09375 0  0.203125 0.09375 0  0.21875 0.09375 0  0.234375 0.09375 0  0.25 0.09375 0  0.265625 0.09375 0  0.28125 0.09375 0  0.296875 0.09375 0  0.3125 0.09375 0  0.328125 0.09375 0  0.34375 0.09375 0  0.359375 0.09375 0  0.375 0.09375 0  0.390625 0.09375 0  0.40625 0.09375 0  0.421875 0.09375 0  0.4375 0.09375 0  0.453125 0.09375 0  0.46875 0.09375 0  0.484375 0.09375 0  0.5 0.09375 0  0.515625 0.09375 0  0.53125 0.09375 0  0.546875 0.09375 0  0.5625 0.09375 0  0.578125 0.09375 0  0.59375 0.09375 0  0.609375 0.09375 0  0.625 0.09375 0  0.640625 0.09375 0  0.65625 0.09375 0  0.671875 0.09375 0  0.6875 0.09375 0  0.703125 0.09375 0  0.71875 0.09375 0  0.734375 0.09375 0  0.75 0.09375 0  0.765625 0.09375 0  0.78125 0.09375 0  0.796875 0.09375 0  0.8125 0.09375 0  0.828125 0.09375 0  0.84375 0.09375 0  0.859375 0.09375 0  0.875 0.09375 0  0.890625 0.09375 0  0.90625 0.09375 0  0.921875 0.09375 0  0.9375 0.09375 0  0.953125 0.09375 0  0.96875 0.09375 0  0.984375 0.09375 0  1 0.09375 0  0 0.109375 0  0.015625 0.109375 0  0.03125 0.109375 0  0.046875 0.109375 0  0.0625 0.109375 0  0.078125 0.109375 0  0.09375 0.109375 0  0.109375 0.109375 0  0.125 0.109375 0  0.140625 0.109375 0  0.15625 0.109375 0  0.171875 0.109375 0  0.1875 0.109375 0  0.203125 0.109375 0  0.21875 0.109375 0  0.234375 0.109375 0  0.25 0.109375 0  0.265625 0.109375 0  0.28125 0.109375 0  0.296875 0.109375 0  0.3125 0.109375 0  0.328125 0.109375 0  0.34375 0.109375 0  0.359375 0.109375 0  0.375 0.109375 0  0.390625 0.109375 0  0.40625 0.109375 0  0.421875 0.109375 0  0.4375 0.109375 0  0.453125 0.109375 0  0.46875 0.109375 0  0.484375 0.109375 0  0.5 0.109375 0  0.515625 0.109375 0  0.53125 0.109375 0  0.546875 0.109375 0  0.5625 0.109375 0  0.578125 0.109375 0  0.59375 0.109375 0  0.609375 0.109375 0  0.625 0.109375 0  0.640625 0.109375 0  0.65625 0.109375 0  0.671875 0.109375 0  0.6875 0.109375 0  0.703125 0.109375 0  0.71875 0.109375 0  0.734375 0.109375 0  0.75 0.109375 0  0.765625 0.109375 0  0.78125 0.109375 0  0.796875 0.109375 0  0.8125 0.109375 0  0.828125 0.109375 0  0.84375 0.109375 0  0.859375 0.109375 0  0.875 0.109375 0  0.890625 0.109375 0  0.90625 0.109375 0  0.921875 0.109375 0  0.9375 0.109375 0  0.953125 0.109375 0  0.96875 0.109375 0  0.984375 0.109375 0  1 0.109375 0  0 0.125 0  0.015625 0.125 0  0.03125 0.125 0  0.046875 0.125 0  0.0625 0.125 0  0.078125 0.125 0  0.09375 0.125 0  0.109375 0.125 0  0.125 0.12
[...]
<PointData  Scalars="f_4824"> 
<DataArray  type="Float64"  Name="f_4824"  format="ascii">5.1019470616256264e-17  4.9053392890156074e-17  4.3596536727451188e-17  3.5961009827787732e-17  2.7280943159487085e-17  1.8485385952573934e-17  1.0273339795505197e-17  3.1134181283845797e-18  -2.7366943420746438e-18  -7.2006219445770688e-18  -1.0365643294565694e-17  -1.2532711549751546e-17  -1.4469452397622150e-17  -1.8134786171164035e-17  -2.8245550440996976e-17  -5.5455573411151289e-17  -1.2091674418486287e-16  -2.6142695716639634e-16  -5.3199429364130829e-16  -1.0010645880683296e-15  -1.7343403030649144e-15  -2.7680147732862964e-15  -4.0802976306203966e-15  -5.5762484310576954e-15  -7.0988382383079789e-15  -8.4671145734933865e-15  -9.5268730096586405e-15  -1.0191243317554835e-14  -1.0454293116022368e-14  -1.0375963090844015e-14  -1.0050511406816238e-14  -9.5748976589997629e-15  -9.0282204413322430e-15  -8.4645592087994900e-15  -7.9153567792743402e-15  -7.3958451410860285e-15  -6.9115002597569673e-15  -6.4627669723790669e-15  -6.0478924846827826e-15  -5.6643775266898533e-15  -5.3096188678364408e-15  -4.9811508488118224e-15  -4.6767145733757853e-15  -4.3942628695539639e-15  -4.1319452628655432e-15  -3.8880887462258400e-15  -3.6611791798769987e-15  -3.4498444799202048e-15  -3.2528396864013012e-15  -3.0690337446830312e-15  -2.8973977998041031e-15  -2.7369948174770708e-15  -2.5869703681896627e-15  -2.4465444375015987e-15  -2.3150041717287520e-15  -2.1916975547466638e-15  -2.0760279997748669e-15  -1.9674488236191872e-15  -1.8654516688306913e-15  -1.7695291322676035e-15  -1.6790921491624149e-15  -1.5935597932246343e-15  -1.5136099776204665e-15  -1.4439562366424833e-15  -1.4215941723920139e-15  5.3481505079315406e-17  5.2298314463009879e-17  4.8179468548862962e-17  4.1463824681402569e-17  3.3300554247516237e-17  2.4650839278916351e-17  1.6271167561950236e-17  8.7024852723863375e-18  2.2797668056465923e-18  -2.8457126574314731e-18  -6.6880121269796586e-18  -9.4513753522782097e-18  -1.1685223859696100e-17  -1.4718987091739789e-17  -2.1529229042384077e-17  -3.8334481091798203e-17  -7.6362767057777622e-17  -1.5300181790000527e-16  -2.9066006123052013e-16  -5.1229105510640274e-16  -8.3479688863305635e-16  -1.2644489082264708e-15  -1.7988198474381335e-15  -2.4349280935557036e-15  -3.1757869489890712e-15  -4.0251055576546902e-15  -4.9683161735058984e-15  -5.9524665426386720e-15  -6.8838980739918445e-15  -7.6521593032793013e-15  -8.1687536951881601e-15  -8.3977023392900042e-15  -8.3613706668783602e-15  -8.1224644818042612e-15  -7.7563757581631745e-15  -7.3288544961618035e-15  -6.8858405081542436e-15  -6.4537646671228311e-15  -6.0449302405663849e-15  -5.6633953478191764e-15  -5.3092310126504988e-15  -4.9809332068145699e-15  -4.6765497752221920e-15  -4.3941207831875680e-15  -4.1318180276497559e-15  -3.8879736977543411e-15  -3.6610748395070985e-15  -3.4497497012566595e-15  -3.2527534811621503e-15  -3.0689552407404928e-15  -2.8973262235136397e-15  -2.7369294814018443e-15  -2.5869106612857048e-15  -2.4464898165450966e-15  -2.3149541469519763e-15  -2.1916516409697066e-15  -2.0759855779441098e-15  -1.9674090132989934e-15  -1.8654144176389950e-15  -1.7695025288038230e-15  -1.6791160852513665e-15  -1.5937247602142985e-15  -1.5138562122191799e-15  -1.4431709471661769e-15  -1.4140697164236511e-15  5.6220925403805224e-17  5.4019315060173904e-17  4.9786421957882646e-17  4.3105005443641641e-17  3.4884172276438348e-17  2.6113204552849859e-17  1.7570612988595490e-17  9.8184442594662265e-18  3.2114299927223234e-18  -2.0722216330282652e-18  -5.9678835229294841e-18  -8.3650477984027371e-18  -8.5972405183389825e-18  -3.7789867722607915e-18  1.6050358421078079e-17  7.9955860853196631e-17  2.6110525478277762e-16  7.1800677281585044e-16  1.7426027091474939e-15  3.7802560206159153e-15  7.3604615613321985e-15  1.2884072131355036e-14  2.0288267069960941e-14  2.8741771777698368e-14  3.6614817872223313e-14  4.1894046924693674e-14  4.2948085147250777e-14  3.9261755145961647e-14  3.1699351267369305e-14  2.2125860092868278e-14  1.2619297132681903e-14  4.7305521528931931e-15  -8.6007798113545911e-16  -4.2439189639488696e-15  -5.9413456002588870e-15  -6.5599321657763366e-15  -6.5908360703261533e-15  -6.3511808151811925e-15  -6.0125226656427320e-15  -5.6540212246935884e-15  -5.3066764369443815e-15  -4.9802086804906888e-15  -4.6762775177159787e-15  -4.3939580505190086e-15  -4.1316871983053765e-15  -3.8878580834994173e-15  -3.6609704195641598e-15  -3.4496549133309520e-15  -3.2526672755942712e-15  -3.0688767372671757e-15  -2.8972546475566874e-15  -2.7368641454182979e-15  -2.5868509540288559e-15  -2.4464351942307909e-15  -2.3149041199800444e-15  -2.1916057329474120e-15  -2.0759432134919056e-15  -1.9673694317097672e-15  -1.8653776097027237e-15  -1.7694750435455616e-15  -1.6791301938326372e-15  -1.5938572863024633e-15  -1.5140358427263958e-15  -1.4422566384486750e-15  -1.4101072542374350e-15  5.4274283625584178e-17  5.6404716198854096e-17  5.4288993053391145e-17  4.9644366147765630e-17  4.2926078544685784e-17  3.5044875795056473e-17  2.6822619630888359e-17  1.8905554730395783e-17  1.1780088634030258e-17  5.8839550075944703e-18  2.1001431800647885e-18  3.7380906937834227e-18  2.3695501658249812e-17  1.0733524738055700e-16  3.9612273282667452e-16  1.2794054094185078e-15  3.6976034115679764e-15  9.6261366301694778e-15  2.2619299342008997e-14  4.8004733948319491e-14  9.2038535406455012e-14  1.5943430069554746e-13  2.4954287377273510e-13  3.5291810765207774e-13  4.5099449827831908e-13  5.2074285425592845e-13  5.4323229687342744e-13  5.1186404381672184e-13  4.3542286478074583e-13  3.3404069460829021e-13  2.3059690433429365e-13  1.4253928180995514e-13  7.7971501064042930e-14  3.6565096941417575e-14  1.3180163086266684e-14  1.5511872609175474e-15  -3.4753728560544374e-15  -5.2673575354543453e-15  -5.6708869995246631e-15  -5.5563552013614598e-15  -5.2812768072590305e-15  -4.9741263521567119e-15  -4.6748660594235250e-15  -4.3935756686343515e-15  -4.1315179573855888e-15  -3.8877363764038815e-15  -3.6608651237661489e-15  -3.4495600120055499e-15  -3.2525810573364134e-15  -3.0687982329356942e-15  -2.8971830718081229e-15  -2.7367988095270073e-15  -2.5867912464822027e-15  -2.4463805708202383e-15  -2.3148540913179726e-15  -2.1915598296967154e-15  -2.0759008966570890e-15  -1.9673300375269313e-15  -1.8653411167259719e-15  -1.7694467641462675e-15  -1.6791369255844590e-15  -1.5939604436287855e-15  -1.5141480579783735e-15  -1.4414742125470508e-15  -1.4077730353174801e-15  6.7149416720604401e-17  5.9454161896304286e-17  5.5416816543309605e-17  4.8744886465278144e-17  4.0428358441027414e-17  3.1308895890000650e-17  2.2238434093897641e-17  1.3905589412245103e-17  7.0145980115073149e-18  3.3224916121500069e-18  1.0396996800728834e-17  6.1110956207503813e-17  2.8438288009303838e-16  1.1306022796746490e-15  3.9963683454813592e-15  1.2709335991415253e-14  3.6484289836971270e-14  9.4625040014674422e-14  2.2178615542865154e-13  4.6981419570243967e-13  8.9949176941951410e-13  1.5565421200551413e-12  2.4346291980127685e-12  3.4421734070025855e-12  4.3993124838901652e-12  5.0829668879942880e-12  5.3095921768679267e-12  5.0147278648582499e-12  4.2825347133919788e-12  3.3069590492783485e-12  2.3088428418343114e-12  1.4569929723137545e-12  8.3028892865803377e-13  4.2627509450630351e-13  1.9592592365283171e-13  7.9140621675698278e-14  2.6357504911468803e-14  5.1226914532079740e-15  -2.3924110157297969e-15  -4.6188198060518044e-15  -5.0381719569408605e-15  -4.9168808639335155e-15  -4.6625505314076906e-15  -4.3910852386140741e-15  -4.1309789241776189e-15  -3.8875557919880308e-15  -3.6607513175604444e-15  -3.4494639942421669e-15  -3.2524947066396167e-15  -3.0687197147537393e-15  -2.8971114949904488e-15  -2.7367334736241737e-15  -2.5867315386918752e-15  -2.4463259465196265e-15  -2.3148040613181863e-15  -2.1915139305217132e-15  -2.0758586195360540e-15  -1.9672907924564528e-15  -1.8653048505106696e-15  -1.7694178524769653e-15  -1.6791376427013036e-15  -1.5940373936954428e-15  -1.5142122628068825e-15  -1.4408623406161324e-15  -1.4062781861895815e-15  4.1452273352757577e-17  5.6310925743603317e-17  5.6660287581634448e-17  5.5858607257855338e-17  5.2422264213810537e-17  4.7018605349748104e-17  4.0421713444102062e-17  3.3720409880846637e-17  2.9959071141836876e-17  4.3116122079246375e-17  1.3980549563684817e-16  6.1074257971972568e-16  2.5929977863291010e-15  1.0050953944784333e-14  3.5259530871997974e-14  1.1181976800270733e-13  3.2053543254518248e-13  8.3050698170676671e-13  1.9450040104958442e-12  4.1172797208927230e-12  7.8780588460021345e-12  1.3625675475956369e-11  2.1303121989057909e-11  3.0109060699831181e-11  3.8472329550597392e-11  4.4445931600156314e-11  4.6428958267777966e-11  4.3859753991865219e-11  3.7472753300319018e-11  2.8959578814559440e-11  2.0246552479828016e-11  1.2806779446126355e-11  7.3296428757852484e-12  3.7952284856086755e-12  1.7769790927848045e-12  7.5105287095826937e-13  2.8499100743813782e-13  9.5312712988434728e-14  2.6106854964172254e-14  3.5435728274420408e-15  -2.9186728737547346e-15  -4.4176995680020260e-15  -4.5558162054039944e-15  -4.3702904142511700e-15  -4.1272188602596578e-15  -3.8868605298850055e-15  -3.6605628066970441e-15  -3.4493581228525593e-15  -3.2524071748008651e-15  -3.0686410681961981e-15  -2.8970399057211142e-15  -2.7366681366887886e-15  -2.5866718306197985e-15  -2.4462713214832005e-15  -2.3147540302485705e-15  -2.1914680349052728e-15  -2.0758163752174918e-15  -1.9672516643019917e-15  -1.8652687548745067e-15  -1.7693884367533353e-15  -1.6791332143460901e-15  -1.5940921407168589e-15  -1.5142456831134339e-15  -1.4403993015565924e-15  -1.4052669638983526e-15  1.0382800686326601e-16  7.1575052901101566e-17  6.6254015787499747e-17  5.6141880334280763e-17  4.4890609749192777e-17  3.3066568231308414e-17  2.2136347596060494e-17  1.6143686733637886e-17  3.5444044141089055e-17  1.8853651769218672e-16  1.0048431388679909e-15  4.8013373389839792e-15  2.0636572502896223e-14  8.0064754486258271e-14  2.8069474335951850e-13  8.8946945916663292e-13  2.5477450767720651e-12  6.5964827704204549e-12  1.5438356499635225e-11  3.2660661533299045e-11  6.2458507655026770e-11  1.0797262424860384e-10  1.6873677917604106e-10  2.3839923849108737e-10  3.0453035233092051e-10  3.5174285514049034e-10  3.6739569223816703e-10  3.4706318407086753e-10  2.9655589740845073e-10  2.2924062459584097e-10  1.6033632669198505e-10  1.0148445277040360e-10  5.8138976345150399e-11  3.0151167709058021e-11  1.4156613877565734e-11  6.0175765969708096e-12  2.3146531090100957e-12  8.0408688586790094e-13  2.5043426560249832e-13  6.7909928967042216e-14  1.3829114897914906e-14  -4.6483640806696422e-16  -3.7091855021755733e-15  -4.2056127336418943e-15  -4.0980513173778518e-15  -3.8820894812236385e-15  -3.6597800540870541e-15  -3.4491734662692419e-15  -3.2523101392187068e-15  -3.0685613782118879e-15  -2.8969682123125861e-15  -2.7366027903497397e-15  -2.5866121216059406e-15  -2.4462166957833447e-15  -2.3147039983210634e-15  -2.1914221424032841e-15  -2.0757741576450729e-15  -1.9672126276281431e-15  -1.8652327924509581e-15  -1.7693585988597352e-15  -1.6791243331674617e-15  -1.5941288211698700e-15  -1.5142600534660328e-15  -1.4400528710329819e-15  -1.4045593489256036e-15  -2.2997107158437059e-17  4.0086957920832395e-17  4.3731973100744117e-17  5.2284635765338453e-17  5.7604827637340716e-17  6.0588159962313625e-17  6.4818630477902129e-17  9.4400026375797934e-17  2.9367465548822478e-16  1.4470725587732343e-15  7.3847547358580841e-15  3.4851998894971063e-14  1.4924819700702890e-13  5.7815722635750643e-13  2.0249080031691642e-12  6.4111809701521532e-12  1.8349718170169672e-11  4.7475943463836964e-11  1.1103754109791618e-10  2.3475888384915765e-10  4.4868277000950733e-10  7.7524129761462515e-10  1.2109768762749704e-09  1.7102681398077811e-09  2.1840210918549138e-09  2.5220608829170819e-09  2.6339600767517993e-09  2.4881306629166684e-09  2.1262261313409031e-09  1.6439397580539424e-09  1.1502069150537317e-09  7.2838021218145666e-10  4.1755647151465166e-10  2.1673717268574520e-10  1.0188262163562441e-10  4.3380864685879815e-11  1.6733546753106678e-11  5.8471779607416363e-12  1.8494529150950393e-12  5.2766115932746302e-13  1.3373326895158882e-13  2.7909630392184103e-14  2.3856180463816830e-15  -3.0167772226057245e-15  -3.8873162553037778e-15  -3.8480612587243538e-15  -3.6547099660401713e-15  -3.4484171017337477e-15  -3.2521436810604513e-15  -3.0684740056775889e-15  -2.8968957435772497e-15  -2.7365373726343377e-15  -2.5865524064475477e-15  -2.4461620691150431e-15  -2.3146539656814965e-15  -2.1913762525930174e-15  -2.0757319616539876e-15  -1.9671736629079303e-15  -1.8651969357290989e-15  -1.7693283895315247e-15  -1.6791116272271380e-15  -1.5941511757875412e-15  -1.5142626786800677e-15  -1.4397941785469420e-15  -1.4040536483035490e-15  2.3644032063279596e-16  1.1390342882790742e-16  1.0659880478510352e-16  8.3242834631195884e-17  6.0135808175137157e-17  4.0214057492454053e-17  4.8375821882046016e-17  2.4181093630266530e-16  1.5665173149321074e-15  9.1681155411031403e-15  4.8156986569597111e-14  2.2821480476708755e-13  9.7729258820897865e-13  3.7831732504481834e-12  1.3239294972731622e-11  4.1884136149918238e-11  1.1978588762249117e-10  3.0969233418706463e-10  7.2381098608192107e-10  1.5293112360721553e-09  2.9211526506249660e-09  5.0445001504894371e-09  7.8761146523233765e-09  1.1119042200461183e-08  1.4194587840590047e-08  1.6387927342035501e-08  1.7112913252726479e-08  1.6165242312615721e-08  1.3815449643065937e-08  1.0684265590741110e-08  7.4782367002423393e-09  4.7381848193728687e-09  2.7181375236601940e-09  1.4121167076297141e-09  6.6451835019044271e-10  2.8332294058921856e-10  1.0947055696075513e-10  3.8339709700228803e-11  1.2172817094909690e-11  3.5027382018997445e-12  9.1169248328208201e-13  2.1256080156193261e-13  4.2183016486645266e-14  4.7753667039054396e-15  -2.5005898946760538e-15  -3.6235597680693372e-15  -3.6215643269356766e-15  -3.4438919249295304e-15  -3.2515160871365287e-15  -3.0683351549780091e-15  -2.8968180260014317e-15  -2.7364714655181686e-15  -2.5864926493789766e-15  -2.4461074387462364e-15  -2.3146039322649000e-15  -2.1913303650547316e-15  -2.0756897829651184e-15  -1.9671347552098567e-15  -1.8651611625489081e-15  -1.7692978442081824e-15  -1.6790956806201105e-15  -1.5941623411027219e-15  -1.5142579449001352e-15  -1.4396003940986533e-15  -1.4036871215337267e-15  -2.6560302912637467e-16  -3.6291145428858978e-17  -3.1626747591157329e-17  1.9898154336477550e-18  3.4402343059590950e-17  8.4933384862753599e-17  2.8923348555259226e-16  1.5754023451437724e-15  9.5727710139894670e-15  5.4898932784524841e-14  2.8682290266706283e-13  1.3566818010589770e-12  5.8032624276939575e-12  2.2443903250455571e-11  7.8474600055386793e-11  2.4805749906128044e-10  7.0886233861459371e-10  1.8312853608965639e-09  4.2769862362042013e-09  9.0305868517899475e-09  1.7238720671261825e-08  2.9752691657160364e-08  4.6430983906494394e-08  6.5521736204264753e-08  8.3618363222773908e-08  9.6517687977759745e-08  1.0077633679827261e-07  9.5196503903920248e-08  8.1370159687817793e-08  6.2946019180396064e-08  4.4077136294320750e-08  2.7944034367038536e-08  1.6043143871823401e-08  8.3428373240999254e-09  3.9306706839495270e-09  1.6782566170056324e-09  6.4953845061001524e-10  2.2794349170959197e-10  7.2551619277183320e-11  2.0949163387458324e-11  5.4875365332855425e-12  1.3023752445140942e-12  2.7798261863168888e-13  5.1147655054634052e-14  5.7930479985582637e-15  -2.2736669310287530e-15  -3.4214071236476572e-15  -3.4167731263343313e-15  -3.2480994615603887e-15  -3.0678817824760917e-15  -2.8967078625835049e-15  -2.7364024918686711e-15  -2.5864326261978482e-15  -2.4460527867921467e-15  -2.3145538968518693e-15  -2.1912844793156434e-15  -2.0756476181052075e-15  -1.9670958929922645e-15  -1.8651254542815454e-15  -1.7692669928914113e-15  -1.6790770262053580e-15  -1.5941648362969159e-15  -1.5142484545672828e-15  -1.4394542593136119e-15  -1.4034185928693588e-15  6.8827134735269698e-16  2.6752825769908295e-16  2.6695054240011476e-16  2.0705886562028161e-16  1.6024226617547589e-16  2.2375372855878895e-16  1.1488053687365380e-15  7.9640089283248310e-15  5.1083505975078011e-14  2.9572335206749795e-13  1.5465057321692428e-12  7.3107764636333785e-12  3.1245434940470180e-11  1.2073299136442110e-10  4.2176936325357569e-10  1.3320698877618851e-09  3.8034540791987611e-09  9.8181381762210108e-09  2.2913197771440013e-08  4.8345891759280357e-08  9.2229311608197927e-08  1.5908860848177533e-07  2.4814325411913147e-07  3.5002514118253086e-07  4.4655719898083027e-07  5.1533695023398910e-07  5.3802737787343673e-07  5.0826006301253380e-07  4.3452266042324957e-07  3.3625316647128130e-07  2.3557900224078508e-07  1.4945745912538889e-07  8.5883508453136228e-08  4.4711509740304833e-08  2.1093985656536120e-08  9.0208366474023768e-09  3.4979248640077906e-09  1.2302254397294842e-09  3.9256684989494232e-10  1.1369685079389854e-10  2.9897373876083120e-11  7.1388776077548108e-12  1.5464696781285693e-12  3.0188122702069295e-13  5.0896889111764609e-14  5.1158182426304282e-15  -2.3178156506474212e-15  -3.2663228288156382e-15  -3.2292995501024840e-15  -3.0656728598553843e-15  -2.8964141076001121e-15  -2.7363158919122420e-15  -2.5863710460530379e-15  -2.4459980077126385e-15  -2.3145038515299706e-15  -2.1912385944677121e-15  -2.0756054642627439e-15  -1.9670570671824817e-15  -1.8650897952204761e-15  -1.7692358646219438e-15  -1.6790561362812529e-15  -1.5941606360411222e-15  -1.5142357549772878e-15  -1.4393429584314736e-15  -1.4032199372181587e-15  -1.0720093908085980e-15  -3.1798745682373309e-16  -3.3581670381605853e-16  -2.3341495603184631e-16  -6.5184307321671873e-17  6.6354336039129859e-16  5.6066602277212004e-15  3.9402815602492724e-14  2.5105039488795844e-13  1.4491766832860001e-12  7.5677662557590649e-12  3.5736900190392728e-11  1.5258705665469897e-10  5.8904716538208634e-10  2.0559037103814110e-09  6.4873803036978870e-09  1.8507508367847848e-08  4.7735534043193937e-08  1.1131658051822071e-07  2.3470243543298010e-07  4.4744267771351336e-07  7.7134575178282613e-07  1.2025140469084708e-06  1.6955318067004667e-06  2.1624675910766170e-06  2.4950658796804606e-06  2.6047826287349054e-06  2.4608972771817836e-06  2.1044097807719308e-06  1.6291864653659256e-06  1.1421156161607302e-06  7.2518613241080785e-07  4.1715426846008471e-07  2.1745323981380914e-07  1.0274918634185240e-07  4.4021365547791707e-08  1.7106441400050855e-08  6.0313703531641562e-09  1.9301635632517334e-09  5.6087997547415484e-10  1.4805852779790854e-10  3.5520334415835684e-11  7.7468405550924155e-12  1.5347303093761830e-12  2.7417103901124204e-13  4.1977877151748602e-14  3.2357479808944296e-15  -2.5018704140889072e-15  -3.1329723100235066e-15  -3.0544915899830838e-15  -2.8951668425321578e-15  -2.7361360452140454e-15  -2.5863010541749273e-15  -2.4459425265028234e-15  -2.3144537515751029e-15  -2.1911927069586327e-15  -2.0755633190078153e-15  -1.9670182705246805e-15  -1.8650541723597341e-15  -1.7692044886818803e-15  -1.6790334185374023e-15  -1.5941512677600122e-15  -1.5142207780024088e-15  -1.4392570431282916e-15  -1.4030714577175239e-15  2.1121738232014049e-15  7.8766636913446665e-16  8.5327589415321292e-16  7.3705100042736730e-16  9.0565953717459852e-16  3.5308598256764372e-15  2.4947510133870289e-14  1.7484898858372853e-13  1.1156499303182018e-12  6.4382602698192061e-12  3.3593417048880886e-11  1.5848541606515581e-10  6.7603394360040874e-10  2.6072503094174585e-09  9.0912694643629152e-09  2.8660919830230059e-08  8.1692179877325865e-08  2.1052427670048964e-07  4.9053286718686924e-07  1.0334705388134189e-06  1.9688808298719181e-06  3.3920886735273983e-06  5.2854811789883263e-06  7.4494235574483261e-06  9.4981905686295509e-06  1.0957368897935833e-05  1.1439145518528015e-05  1.0808981404856308e-05  9.2463177929538794e-06  7.1621178980129070e-06  5.0246418732917875e-06  3.1935142196694919e-06  1.8392838128792450e-06  9.6021467604088460e-07  4.54526777