<?xml version="1.0"?>
<VTKFile type="UnstructuredGrid"  version="0.1"  >
<UnstructuredGrid>
<Piece  NumberOfPoints="4225" NumberOfCells="8192">
<Points>
<DataArray  type="Float64"  NumberOfComponents="3"  format="ascii">0 0 0  0.015625 0 0  0.03125 0 0  0.046875 0 0  0.0625 0 0  0.078125 0 0  0.09375 0 0  0.109375 0 0  0.125 0 0  0.140625 0 0  0.15625 0 0  0.171875 0 0  0.1875 0 0  0.203125 0 0  0.21875 0 0  0.234375 0 0  0.25 0 0  0.265625 0 0  0.28125 0 0  0.296875 0 0  0.3125 0 0  0.328125 0 0  0.34375 0 0  0.359375 0 0  0.375 0 0  0.390625 0 0  0.40625 0 0  0.421875 0 0  0.4375 0 0  0.453125 0 0  0.46875 0 0  0.484375 0 0  0.5 0 0  0.515625 0 0  0.53125 0 0  0.546875 0 0  0.5625 0 0  0.578125 0 0  0.59375 0 0  0.609375 0 0  0.625 0 0  0.640625 0 0  0.65625 0 0  0.671875 0 0  0.6875 0 0  0.703125 0 0  0.71875 0 0  0.734375 0 0  0.75 0 0  0.765625 0 0  0.78125 0 0  0.796875 0 0  0.8125 0 0  0.828125 0 0  0.84375 0 0  0.859375 0 0  0.875 0 0  0.890625 0 0  0.90625 0 0  0.921875 0 0  0.9375 0 0  0.953125 0 0  0.96875 0 0  0.984375 0 0  1 0 0  0 0.015625 0  0.015625 0.015625 0  0.03125 0.015625 0  0.046875 0.015625 0  0.0625 0.015625 0  0.078125 0.015625 0  0.09375 0.015625 0  0.109375 0.015625 0  0.125 0.015625 0  0.140625 0.015625 0  0.15625 0.015625 0  0.171875 0.015625 0  0.1875 0.015625 0  0.203125 0.015625 0  0.21875 0.015625 0  0.234375 0.015625 0  0.25 0.015625 0  0.265625 0.015625 0  0.28125 0.015625 0  0.296875 0.015625 0  0.3125 0.015625 0  0.328125 0.015625 0  0.34375 0.015625 0  0.359375 0.015625 0  0.375 0.015625 0  0.390625 0.015625 0  0.40625 0.015625 0  0.421875 0.015625 0  0.4375 0.015625 0  0.453125 0.015625 0  0.46875 0.015625 0  0.484375 0.015625 0  0.5 0.015625 0  0.515625 0.015625 0  0.53125 0.015625 0  0.546875 0.015625 0  0.5625 0.015625 0  0.578125 0.015625 0  0.59375 0.015625 0  0.609375 0.015625 0  0.625 0.015625 0  0.640625 0.015625 0  0.65625 0.015625 0  0.671875 0.015625 0  0.6875 0.015625 0  0.703125 0.015625 0  0.71875 0.015625 0  0.734375 0.015625 0  0.75 0.015625 0  0.765625 0.015625 0  0.78125 0.015625 0  0.796875 0.015625 0  0.8125 0.015625 0  0.828125 0.015625 0  0.84375 0.015625 0  0.859375 0.015625 0  0.875 0.015625 0  0.890625 0.015625 0  0.90625 0.015625 0  0.921875 0.015625 0  0.9375 0.015625 0  0.953125 0.015625 0  0.96875 0.015625 0  0.984375 0.015625 0  1 0.015625 0  0 0.03125 0  0.015625 0.03125 0  0.03125 0.03125 0  0.046875 0.03125 0  0.0625 0.03125 0  0.078125 0.03125 0  0.09375 0.03125 0  0.109375 0.03125 0  0.125 0.03125 0  0.140625 0.03125 0  0.15625 0.03125 0  0.171875 0.03125 0  0.1875 0.03125 0  0.203125 0.03125 0  0.21875 0.03125 0  0.234375 0.03125 0  0.25 0.03125 0  0.265625 0.03125 0  0.28125 0.03125 0  0.296875 0.03125 0  0.3125 0.03125 0  0.328125 0.03125 0  0.34375 0.03125 0  0.359375 0.03125 0  0.375 0.03125 0  0.390625 0.03125 0  0.40625 0.03125 0  0.421875 0.03125 0  0.4375 0.03125 0  0.453125 0.03125 0  0.46875 0.03125 0  0.484375 0.03125 0  0.5 0.03125 0  0.515625 0.03125 0  0.53125 0.03125 0  0.546875 0.03125 0  0.5625 0.03125 0  0.578125 0.03125 0  0.59375 0.03125 0  0.609375 0.03125 0  0.625 0.03125 0  0.640625 0.03125 0  0.65625 0.03125 0  0.671875 0.03125 0  0.6875 0.03125 0  0.703125 0.03125 0  0.71875 0.03125 0  0.734375 0.03125 0  0.75 0.03125 0  0.765625 0.03125 0  0.78125 0.03125 0  0.796875 0.03125 0  0.8125 0.03125 0  0.828125 0.03125 0  0.84375 0.03125 0  0.859375 0.03125 0  0.875 0.03125 0  0.890625 0.03125 0  0.90625 0.03125 0  0.921875 0.03125 0  0.9375 0.03125 0  0.953125 0.03125 0  0.96875 0.03125 0  0.984375 0.03125 0  1 0.03125 0  0 0.046875 0  0.015625 0.046875 0  0.03125 0.046875 0  0.046875 0.046875 0  0.0625 0.046875 0  0.078125 0.046875 0  0.09375 0.046875 0  0.109375 0.046875 0  0.125 0.046875 0  0.140625 0.046875 0  0.15625 0.046875 0  0.171875 0.046875 0  0.1875 0.046875 0  0.203125 0.046875 0  0.21875 0.046875 0  0.234375 0.046875 0  0.25 0.046875 0  0.265625 0.046875 0  0.28125 0.046875 0  0.296875 0.046875 0  0.3125 0.046875 0  0.328125 0.046875 0  0.34375 0.046875 0  0.359375 0.046875 0  0.375 0.046875 0  0.390625 0.046875 0  0.40625 0.046875 0  0.421875 0.046875 0  0.4375 0.046875 0  0.453125 0.046875 0  0.46875 0.046875 0  0.484375 0.046875 0  0.5 0.046875 0  0.515625 0.046875 0  0.53125 0.046875 0  0.546875 0.046875 0  0.5625 0.046875 0  0.578125 0.046875 0  0.59375 0.046875 0  0.609375 0.046875 0  0.625 0.046875 0  0.640625 0.046875 0  0.65625 0.046875 0  0.671875 0.046875 0  0.6875 0.046875 0  0.703125 0.046875 0  0.71875 0.046875 0  0.734375 0.046875 0  0.75 0.046875 0  0.765625 0.046875 0  0.78125 0.046875 0  0.796875 0.046875 0  0.8125 0.046875 0  0.828125 0.046875 0  0.84375 0.046875 0  0.859375 0.046875 0  0.875 0.046875 0  0.890625 0.046875 0  0.90625 0.046875 0  0.921875 0.046875 0  0.9375 0.046875 0  0.953125 0.046875 0  0.96875 0.046875 0  0.984375 0.046875 0  1 0.046875 0  0 0.0625 0  0.015625 0.0625 0  0.03125 0.0625 0  0.046875 0.0625 0  0.0625 0.0625 0  0.078125 0.0625 0  0.09375 0.0625 0  0.109375 0.0625 0  0.125 0.0625 0  0.140625 0.0625 0  0.15625 0.0625 0  0.171875 0.0625 0  0.1875 0.0625 0  0.203125 0.0625 0  0.21875 0.0625 0  0.234375 0.0625 0  0.25 0.0625 0  0.265625 0.0625 0  0.28125 0.0625 0  0.296875 0.0625 0  0.3125 0.0625 0  0.328125 0.0625 0  0.34375 0.0625 0  0.359375 0.0625 0  0.375 0.0625 0  0.390625 0.0625 0  0.40625 0.0625 0  0.421875 0.0625 0  0.4375 0.0625 0  0.453125 0.0625 0  0.46875 0.0625 0  0.484375 0.0625 0  0.5 0.0625 0  0.515625 0.0625 0  0.53125 0.0625 0  0.546875 0.0625 0  0.5625 0.0625 0  0.578125 0.0625 0  0.59375 0.0625 0  0.609375 0.0625 0  0.625 0.0625 0  0.640625 0.0625 0  0.65625 0.0625 0  0.671875 0.0625 0  0.6875 0.0625 0  0.703125 0.0625 0  0.71875 0.0625 0  0.734375 0.0625 0  0.75 0.0625 0  0.765625 0.0625 0  0.78125 0.0625 0  0.796875 0.0625 0  0.8125 0.0625 0  0.828125 0.0625 0  0.84375 0.0625 0  0.859375 0.0625 0  0.875 0.0625 0  0.890625 0.0625 0  0.90625 0.0625 0  0.921875 0.0625 0  0.9375 0.0625 0  0.953125 0.0625 0  0.96875 0.0625 0  0.984375 0.0625 0  1 0.0625 0  0 0.078125 0  0.015625 0.078125 0  0.03125 0.078125 0  0.046875 0.078125 0  0.0625 0.078125 0  0.078125 0.078125 0  0.09375 0.078125 0  0.109375 0.078125 0  0.125 0.078125 0  0.140625 0.078125 0  0.15625 0.078125 0  0.171875 0.078125 0  0.1875 0.078125 0  0.203125 0.078125 0  0.21875 0.078125 0  0.234375 0.078125 0  0.25 0.078125 0  0.265625 0.078125 0  0.28125 0.078125 0  0.296875 0.078125 0  0.3125 0.078125 0  0.328125 0.078125 0  0.34375 0.078125 0  0.359375 0.078125 0  0.375 0.078125 0  0.390625 0.078125 0  0.40625 0.078125 0  0.421875 0.078125 0  0.4375 0.078125 0  0.453125 0.078125 0  0.46875 0.078125 0  0.484375 0.078125 0  0.5 0.078125 0  0.515625 0.078125 0  0.53125 0.078125 0  0.546875 0.078125 0  0.5625 0.078125 0  0.578125 0.078125 0  0.59375 0.078125 0  0.609375 0.078125 0  0.625 0.078125 0  0.640625 0.078125 0  0.65625 0.078125 0  0.671875 0.078125 0  0.6875 0.078125 0  0.703125 0.078125 0  0.71875 0.078125 0  0.734375 0.078125 0  0.75 0.078125 0  0.765625 0.078125 0  0.78125 0.078125 0  0.796875 0.078125 0  0.8125 0.078125 0  0.828125 0.078125 0  0.84375 0.078125 0  0.859375 0.078125 0  0.875 0.078125 0  0.890625 0.078125 0  0.90625 0.078125 0  0.921875 0.078125 0  0.9375 0.078125 0  0.953125 0.078125 0  0.96875 0.078125 0  0.984375 0.078125 0  1 0.078125 0  0 0.09375 0  0.015625 0.09375 0  0.03125 0.09375 0  0.046875 0.09375 0  0.0625 0.09375 0  0.078125 0.09375 0  0.09375 0.09375 0  0.109375 0.09375 0  0.125 0.09375 0  0.140625 0.09375 0  0.15625 0.09375 0  0.171875 0.09375 0  0.1875 0.09375 0  0.203125 0.09375 0  0.21875 0.09375 0  0.234375 0.09375 0  0.25 0.09375 0  0.265625 0.09375 0  0.28125 0.09375 0  0.296875 0.09375 0  0.3125 0.09375 0  0.328125 0.09375 0  0.34375 0.09375 0  0.359375 0.09375 0  0.375 0.09375 0  0.390625 0.09375 0  0.40625 0.09375 0  0.421875 0.09375 0  0.4375 0.09375 0  0.453125 0.09375 0  0.46875 0.09375 0  0.484375 0.09375 0  0.5 0.09375 0  0.515625 0.09375 0  0.53125 0.09375 0  0.546875 0.09375 0  0.5625 0.09375 0  0.578125 0.09375 0  0.59375 0.09375 0  0.609375 0.09375 0  0.625 0.09375 0  0.640625 0.09375 0  0.65625 0.09375 0  0.671875 0.09375 0  0.6875 0.09375 0  0.703125 0.09375 0  0.71875 0.09375 0  0.734375 0.09375 0  0.75 0.09375 0  0.765625 0.09375 0  0.78125 0.09375 0  0.796875 0.09375 0  0.8125 0.09375 0  0.828125 0.09375 0  0.84375 0.09375 0  0.859375 0.09375 0  0.875 0.09375 0  0.890625 0.09375 0  0.90625 0.09375 0  0.921875 0.09375 0  0.9375 0.09375 0  0.953125 0.09375 0  0.96875 0.09375 0  0.984375 0.09375 0  1 0.09375 0  0 0.109375 0  0.015625 0.109375 0  0.03125 0.109375 0  0.046875 0.109375 0  0.0625 0.109375 0  0.078125 0.109375 0  0.09375 0.109375 0  0.109375 0.109375 0  0.125 0.109375 0  0.140625 0.109375 0  0.15625 0.109375 0  0.171875 0.109375 0  0.1875 0.109375 0  0.203125 0.109375 0  0.21875 0.109375 0  0.234375 0.109375 0  0.25 0.109375 0  0.265625 0.109375 0  0.28125 0.109375 0  0.296875 0.109375 0  0.3125 0.109375 0  0.328125 0.109375 0  0.34375 0.109375 0  0.359375 0.109375 0  0.375 0.109375 0  0.390625 0.109375 0  0.40625 0.109375 0  0.421875 0.109375 0  0.4375 0.109375 0  0.453125 0.109375 0  0.46875 0.109375 0  0.484375 0.109375 0  0.5 0.109375 0  0.515625 0.109375 0  0.53125 0.109375 0  0.546875 0.109375 0  0.5625 0.109375 0  0.578125 0.109375 0  0.59375 0.109375 0  0.609375 0.109375 0  0.625 0.109375 0  0.640625 0.109375 0  0.65625 0.109375 0  0.671875 0.109375 0  0.6875 0.109375 0  0.703125 0.109375 0  0.71875 0.109375 0  0.734375 0.109375 0  0.75 0.109375 0  0.765625 0.109375 0  0.78125 0.109375 0  0.796875 0.109375 0  0.8125 0.109375 0  0.828125 0.109375 0  0.84375 0.109375 0  0.859375 0.109375 0  0.875 0.109375 0  0.890625 0.109375 0  0.90625 0.109375 0  0.921875 0.109375 0  0.9375 0.109375 0  0.953125 0.109375 0  0.96875 0.109375 0  0.984375 0.109375 0  1 0.109375 0  0 0.125 0  0.015625 0.125 0  0.03125 0.125 0  0.046875 0.125 0  0.0625 0.125 0  0.078125 0.125 0  0.09375 0.125 0  0.109375 0.125 0  0.125 0.12
[...]
<PointData  Scalars="f_4824"> 
<DataArray  type="Float64"  Name="f_4824"  format="ascii">2.1039939506283751e-04  1.6529831409670760e-04  1.1108646830414691e-04  7.6908157445396581e-05  5.1519752122543214e-05  3.4131360421617575e-05  2.2156510825543577e-05  1.4131363284063399e-05  8.8363939919532319e-06  5.4162900152404413e-06  3.2509467316252927e-06  1.9093988651205721e-06  1.0964143936762929e-06  6.1500700539265487e-07  3.3668315373321080e-07  1.7972360002347886e-07  9.3459508189163070e-08  4.7300021879269953e-08  2.3275194372891853e-08  1.1124649120021095e-08  5.1594008219877730e-09  2.3194469044525260e-09  1.0096898749733716e-09  4.2515873863450775e-10  1.7298581603805155e-10  6.7935840018802141e-11  2.5724374113004017e-11  9.3814476857733542e-12  3.2914255514631994e-12  1.1096230539152722e-12  3.5899938589959407e-13  1.1130766735737782e-13  3.3018779747249515e-14  9.3532652651245539e-15  2.5242604659516306e-15  6.4730122982268257e-16  1.5724754687143158e-16  3.6087361547082772e-17  7.8214104339507388e-18  1.6229072985788532e-18  3.5029862819481110e-19  1.0667045668875011e-19  6.3370545297970253e-20  5.6277440168425463e-20  5.5237521675108163e-20  5.5130773627664937e-20  5.5156449301134242e-20  5.5199587378733623e-20  5.5245152056527924e-20  5.5291469379339625e-20  5.5338550188622271e-20  5.5386676647710110e-20  5.5436281917130449e-20  5.5487995532058784e-20  5.5542735581621891e-20  5.5601853719325668e-20  5.5667368110237329e-20  5.5742359003720750e-20  5.5831699850223919e-20  5.5943571202477621e-20  5.6093022470689243e-20  5.6311389357691649e-20  5.6673489301407931e-20  5.7380827864810655e-20  5.9025197101730902e-20  3.8958901095766070e-04  3.0240268653947486e-04  2.0403820599317456e-04  1.4621024880095423e-04  9.9434362194778845e-05  6.7597645509195816e-05  4.4850542869789431e-05  2.9320125156373818e-05  1.8787904077761962e-05  1.1815105910368633e-05  7.2798825026453788e-06  4.3930590848965324e-06  2.5937354212504197e-06  1.4971629498507288e-06  8.4410644594736016e-07  4.6443732164150990e-07  2.4914428035119916e-07  1.3018401343793143e-07  6.6194615919466796e-08  3.2720057988730521e-08  1.5706890536475726e-08  7.3147970300856783e-09  3.3013682759568916e-09  1.4424573481598463e-09  6.0948240448179286e-10  2.4876823451583434e-10  9.7976931044843270e-11  3.7192668438929794e-11  1.3592117049491844e-11  4.7760989925380163e-12  1.6114721525822555e-12  5.2126505330032324e-13  1.6135530499310239e-13  4.7691592716023895e-14  1.3424385128168687e-14  3.5876365049266508e-15  9.0715627962169821e-16  2.1623189283213225e-16  4.8423747450942383e-17  1.0178915839659093e-17  2.0337010925628113e-18  4.1918305360177599e-19  1.2248684554061501e-19  7.2140493543069759e-20  6.4306007895617355e-20  6.3222741507651134e-20  6.3123585178843387e-20  6.3155931471862293e-20  6.3204535654574501e-20  6.3255247824531761e-20  6.3306587258131907e-20  6.3358562027164848e-20  6.3411401955809798e-20  6.3465455774216236e-20  6.3521224908965007e-20  6.3579430352538351e-20  6.3641111446536449e-20  6.3707767550178612e-20  6.3781551857930973e-20  6.3865501456375747e-20  6.3963676760733628e-20  6.4080669806495107e-20  6.4218489090871416e-20  6.4363865649393919e-20  6.4442266535727330e-20  8.9435149213079905e-04  7.1671782353767682e-04  5.0160536962749432e-04  3.6807137076358697e-04  2.5703370076665341e-04  1.7983054975467632e-04  1.2265858007199458e-04  8.2581939320956020e-05  5.4499617693308762e-05  3.5333998073675649e-05  2.2456548656892362e-05  1.3989068585771159e-05  8.5317240366739320e-06  5.0907981739069271e-06  2.9690928033416833e-06  1.6911237769145381e-06  9.3978739313018451e-07  5.0906910081786215e-07  2.6852814137038873e-07  1.3779556153367046e-07  6.8717596562459560e-08  3.3268652304326093e-08  1.5619798218462339e-08  7.1042765929158300e-09  3.1267427764786444e-09  1.3301717331595053e-09  5.4634932272216780e-10  2.1640421672923387e-10  8.2555782850169789e-11  3.0291210473663529e-11  1.0673092580524980e-11  3.6046567951195531e-12  1.1643184908045817e-12  3.5871991534272766e-13  1.0508756502549622e-13  2.9167851330741931e-14  7.6403097172440661e-15  1.8809827483284009e-15  4.3346226956116583e-16  9.3160350506370400e-17  1.8643722801927927e-17  3.5057569844091638e-18  6.6302090410252822e-19  1.7116078886382713e-19  9.3002718007406459e-20  8.1662038154162597e-20  8.0202445502495697e-20  8.0078174370424831e-20  8.0118588844872097e-20  8.0177578830837503e-20  8.0238564362929793e-20  8.0299856923102887e-20  8.0361329726544723e-20  8.0423013613386387e-20  8.0484964795917150e-20  8.0547254854080919e-20  8.0609969483730607e-20  8.0673203343629826e-20  8.0737045417909318e-20  8.0801548658707314e-20  8.0866684442369043e-20  8.0932328812351638e-20  8.0998533868292563e-20  8.1067137896205634e-20  8.1148683685757062e-20  1.9384094552350670e-03  1.5788750210396221e-03  1.1341614769177499e-03  8.5165938526297403e-04  6.1112729444597481e-04  4.3906600073788160e-04  3.0775853073730333e-04  2.1314556566990621e-04  1.4475505627861669e-04  9.6668501975134450e-05  6.3320483137251638e-05  4.0686425426299830e-05  2.5613082579006327e-05  1.5787382713912854e-05  9.5185474798474586e-06  5.6089026284747319e-06  3.2271417254053269e-06  1.8112731708837624e-06  9.9071147448971931e-07  5.2756189898452841e-07  2.7322153579667347e-07  1.3747243755084167e-07  6.7128835206773715e-08  3.1777532546462536e-08  1.4566768614967126e-08  6.4586240075385661e-09  2.7665134048863391e-09  1.1433837722150278e-09  4.5531849048854898e-10  1.7442810407553863e-10  6.4163263078774249e-11  2.2612633439796643e-11  7.6144140717072828e-12  2.4420371247881205e-12  7.4319633198005909e-13  2.1376273994173544e-13  5.7860243610922946e-14  1.4674651205893398e-14  3.4726932402229588e-15  7.6379413025662698e-16  1.5561790437726020e-16  2.9329553852599077e-17  5.1558938475997232e-18  9.0280426628370433e-19  2.1676590473161162e-19  1.1556803846458337e-19  1.0198844249358447e-19  1.0038310257165483e-19  1.0026851339789009e-19  1.0032282824965159e-19  1.0039456809175368e-19  1.0046796747777219e-19  1.0054153399674573e-19  1.0061513393954350e-19  1.0068874736663395e-19  1.0076235773448998e-19  1.0083594059422043e-19  1.0090945945343076e-19  1.0098286181525284e-19  1.0105607611141948e-19  1.0112901182123552e-19  1.0120156347434541e-19  1.0127359978013462e-19  1.0134481800716247e-19  1.0141391472434873e-19  4.0123939473450006e-03  3.3219861227306020e-03  2.4545865910615083e-03  1.8868933661100450e-03  1.3906658917163365e-03  1.0251966916793754e-03  7.3846471619318764e-04  5.2577530242304963e-04  3.6736349007267087e-04  2.5258347270547710e-04  1.7045949471836101e-04  1.1293219658664510e-04  7.3356228101956682e-05  4.6690305928328869e-05  2.9090919572495927e-05  1.7728477352445448e-05  1.0557323871500293e-05  6.1376229646029911e-06  3.4800166687106848e-06  1.9224831642271956e-06  1.0336987486911177e-06  5.4040155342044383e-07  2.7438416878984645e-07  1.3515714828072409e-07  6.4514833409107618e-08  2.9806021180973962e-08  1.3311397475017108e-08  5.7387586593202833e-09  2.3845348261329977e-09  9.5317944066365590e-10  3.6572718615759616e-10  1.3432940314167310e-10  4.7076953416546132e-11  1.5683448273049953e-11  4.9461067719752779e-12  1.4701219807671230e-12  4.0997392000017471e-13  1.0679737786535123e-13  2.5879919351910908e-14  5.8118521540064829e-15  1.2054808093891768e-15  2.3031928161436010e-16  4.0500814847682582e-17  6.6147877202972367e-18  1.0790669579759510e-18  2.5306381823485457e-19  1.4071535354193180e-19  1.2686322414201441e-19  1.2537883664538758e-19  1.2530602285306416e-19  1.2537956498144302e-19  1.2546691157260133e-19  1.2555546880309883e-19  1.2564415010263583e-19  1.2573286767134356e-19  1.2582161137624903e-19  1.2591037558179077e-19  1.2599915387264021e-19  1.2608793877310056e-19  1.2617672180353391e-19  1.2626549312805655e-19  1.2635423973551784e-19  1.2644294135374741e-19  1.2653157143097536e-19  1.2662015953088268e-19  7.9278118136799948e-03  6.6709669582638801e-03  5.0670647082654494e-03  3.9843150681173924e-03  3.0144111436027289e-03  2.2792990858708870e-03  1.6865314505765490e-03  1.2337907723431120e-03  8.8657674246727389e-04  6.2730350806330254e-04  4.3599328873643165e-04  2.9770337056363270e-04  1.9945259163006466e-04  1.3103932659344972e-04  8.4341570113686008e-05  5.3138245023215827e-05  3.2740445720358661e-05  1.9709330398007239e-05  1.1580842110331924e-05  6.6352118029842030e-06  3.7030906768721151e-06  2.0109759987143705e-06  1.0614655991279472e-06  5.4396422357919893e-07  2.7032608855143445e-07  1.3011145345910474e-07  6.0570204086815535e-08  2.7229769634620442e-08  1.1799788368612761e-08  4.9179599839931190e-09  1.9660703334872487e-09  7.5145021767645056e-10  2.7354961041274040e-10  9.4439912951515862e-11  3.0780519539745933e-11  9.4268499048217803e-12  2.7004284175366611e-12  7.2041925584327770e-13  1.7827522133335126e-13  4.0775492972479674e-14  8.5931730321207620e-15  1.6641816522872835e-15  2.9557392608970551e-16  4.8142981046991697e-17  7.2761118062358888e-18  1.1194422829220910e-18  2.7458874579719775e-19  1.6916923760628906e-19  1.5729326073370211e-19  1.5616354617926663e-19  1.5615423647930492e-19  1.5625092624312060e-19  1.5635674763897373e-19  1.5646332167163868e-19  1.5656999148470652e-19  1.5667671011290760e-19  1.5678347402300406e-19  1.5689028233435355e-19  1.5699713400610171e-19  1.5710402740304827e-19  1.5721095981904353e-19  1.5731792686056542e-19  1.5742492192702752e-19  1.5753193595059387e-19  1.5763895390025562e-19  1.4944151311316317e-02  1.2778392678154771e-02  9.9709518559616944e-03  8.0170155607813751e-03  6.2235445907446443e-03  4.8246223342472729e-03  3.6653636708881276e-03  2.7538688404589299e-03  2.0342665083319298e-03  1.4805458918529023e-03  1.0593168261498033e-03  7.4515710997500977e-04  5.1470871591741390e-04  3.4891401739054791e-04  2.3189862418145020e-04  1.5099102403315806e-04  9.6220402513216724e-05  5.9957941219023878e-05  3.6497429202706267e-05  2.1681018099908201e-05  1.2555858189661297e-05  7.0810492074145040e-06  3.8846389866799098e-06  2.0706307940462897e-06  1.0710743023091397e-06  5.3693182411700747e-07  2.6046013829256255e-07  1.2204147397617365e-07  5.5115149463537462e-08  2.3925919424916374e-08  9.9514681059768295e-09  3.9505678266370228e-09  1.4903836478154138e-09  5.3181627399960175e-10  1.7862532863545894e-10  5.6203024784523856e-11  1.6490390292085008e-11  4.4929728253794513e-12  1.1324906899726799e-12  2.6320869137462289e-13  5.6246260390315595e-14  1.1024602572289773e-14  1.9780546208708695e-15  3.2442967780568896e-16  4.8691122310646047e-17  6.8040790991442644e-18  1.0138030442666651e-18  2.8616918248422726e-19  2.0319676978001561e-19  1.9470891737904008e-19  1.9402598235981484e-19  1.9408452701352909e-19  1.9420695475348390e-19  1.9433441654524777e-19  1.9446228459374442e-19  1.9459022965915435e-19  1.9471823033005720e-19  1.9484628518230249e-19  1.9497439387346826e-19  1.9510255605396397e-19  1.9523077132985463e-19  1.9535903935984263e-19  1.9548736004268190e-19  1.9561573376347072e-19  1.9574416173889202e-19  2.6862301966034688e-02  2.3336757054951477e-02  1.8694080181629973e-02  1.5364129895565884e-02  1.2231167919904565e-02  9.7168606347040696e-03  7.5757287495053800e-03  5.8429327683852238e-03  4.4348550427317527e-03  3.3185275482611439e-03  2.4431762062023590e-03  1.7696999012320779e-03  1.2597444386446015e-03  8.8074272388434082e-04  6.0421323821197406e-04  4.0640420549132439e-04  2.6776153618878856e-04  1.7264864871299436e-04  1.0883741553148771e-04  6.7013139328519591e-05  4.0258287401722443e-05  2.3571971627981436e-05  1.3436648762594624e-05  7.4476727460830040e-06  4.0088374147795406e-06  2.0924013643498716e-06  1.0571742510878539e-06  5.1594618366256668e-07  2.4259453908348860e-07  1.0954169564135585e-07  4.7318486686324926e-08  1.9467998559031424e-08  7.5920164532550687e-09  2.7922594575995042e-09  9.6370288501591374e-10  3.1062749295544956e-10  9.3094616040756223e-11  2.5838736638100668e-11  6.6185664183335746e-12  1.5598874166625682e-12  3.3739817176151178e-13  6.6829649223501723e-14  1.2099964601783048e-14  1.9996493165793900e-15  3.0139542801883314e-16  4.1542488989363080e-17  5.3929594445353063e-18  8.2432684303791076e-19  3.0021985293028129e-19  2.4578182488715028e-19  2.4077819089470663e-19  2.4048930813259145e-19  2.4060781337460310e-19  2.4075825879828770e-19  2.4091102501269716e-19  2.4106399911242696e-19  2.4121704422847412e-19  2.4137015242512730e-19  2.4152332321645541e-19  2.4167655657057343e-19  2.4182985249028971e-19  2.4198321100700237e-19  2.4213663214887682e-19  2.4229011586442551e-19  2.4244366187001002e-19  4.6020054442767695e-02  4.0611832697160594e-02  3.3375577443443619e-02  2.8028196905297478e-02  2.2868772444046122e-02  1.8609628098586319e-02  1.4881825518062325e-02  1.1777034949343608e-02  9.1802226552838533e-03  7.0593379009575765e-03  5.3452918563401952e-03  3.9850732673797611e-03  2.9220628147670017e-03  2.1060649382014110e-03  1.4906861557566248e-03  1.0353501826344540e-03  7.0498005375163445e-04  4.7017651346677793e-04  3.0684434585739038e-04  1.9575657746610383e-04  1.2195566742060749e-04  7.4114285774842350e-05  4.3884721455843941e-05  2.5286631838662115e-05  1.4158614925847010e-05  7.6909723930185981e-06  4.0447444714682090e-06  2.0542410256561467e-06  1.0043762548334416e-06  4.7094603888543413e-07  2.1083809866094366e-07  8.9679562298217238e-08  3.6053712067268651e-08  1.3628601477885926e-08  4.8196196548186991e-09  1.5871036489488180e-09  4.8461859029585382e-10  1.3670601869513537e-10  3.5512153071216739e-11  8.4719224447509614e-12  1.8518272047183543e-12  3.7016164193583277e-13  6.7554214092131215e-14  1.1240958325999673e-14  1.7037318396065172e-15  2.3517511044349553e-16  2.9740918354647780e-17  3.6501708035683702e-18  6.4349338503414021e-19  3.2936625737392769e-19  2.9975814026163642e-19  2.9738095845233994e-19  2.9736389367057407e-19  2.9753212274454394e-19  2.9771357801558975e-19  2.9789595248121554e-19  2.9807844741617394e-19  2.9826101658178757e-19  2.9844365731354908e-19  2.9862636949492803e-19  2.9880915306666069e-19  2.9899200799177516e-19  2.9917493423054910e-19  2.9935793176110133e-19  2.9954100062055773e-19  7.5102398908334006e-02  6.7309468223399477e-02  5.6711704566216797e-02  4.8643342876760344e-02  4.0654513548022318e-02  3.3871516818722934e-02  2.7767729822685175e-02  2.2536050803954554e-02  1.8031836232080132e-02  1.4242269569004515e-02  1.1085815166495415e-02  8.5023793195021166e-03  6.4188167151053100e-03  4.7670387328522176e-03  3.4796668608670545e-03  2.4944764405193916e-03  1.7546213443692699e-03  1.2099281712797650e-03  8.1712937366955818e-04  5.3994148362907239e-04  3.4871648733957408e-04  2.1988103238698451e-04  1.3519834039565950e-04  8.0954313482894995e-05  4.7131416824625339e-05  2.6628602626942380e-05  1.4564850854181768e-05  7.6889219199757377e-06  3.9030458996182031e-06  1.8967023632943477e-06  8.7798209435837366e-07  3.8507418931611820e-07  1.5915323822676066e-07  6.1660050474383099e-08  2.2282482260172190e-08  7.4774172173331416e-09  2.3208836526459505e-09  6.6402581986412093e-10  1.7461460096475863e-10  4.2098941302718207e-11  9.2866748065440253e-12  1.8711085358862014e-12  3.4384580282262676e-13  5.7562117470499629e-14  8.7699453132404691e-15  1.2152570336561854e-15  1.5330142227608835e-16  1.7849691688407571e-17  2.1801152415155590e-18  5.3677428699168933e-19  3.8073803986051798e-19  3.6749363620986138e-19  3.6665959720856109e-19  3.6680210108916578e-19  3.6701419744316185e-19  3.6723086294241895e-19  3.6744786924644351e-19  3.6766497112433173e-19  3.6788215461254295e-19  3.6809941924437942e-19  3.6831676486011641e-19  3.6853419141912364e-19  3.6875169885750548e-19  3.6896928712327748e-19  3.6918695616163013e-19  1.1668821899384207e-01  1.0618606917339372e-01  9.1662111363741042e-02  8.0266430816686440e-02  6.8675685973372744e-02  5.8552184075499190e-02  4.9180866537147136e-02  4.0913445682607588e-02  3.3584605850494491e-02  2.7232138869986836e-02  2.1778302086922177e-02  1.7174426880315730e-02  1.3342522357781902e-02  1.0205351672948539e-02  7.6785853267876628e-03  5.6788400311988309e-03  4.1245924751633573e-03  2.9394105889435241e-03  2.0534544918910267e-03  1.4048397538757840e-03  9.4021699053593627e-04  6.1488902305070151e-04  3.9244911427578980e-04  2.4408937388421134e-04  1.4767721126927486e-04  8.6714821918149328e-05  4.9275951588825795e-05  2.7000292354229176e-05  1.4203604657325838e-05  7.1375281842201977e-06  3.4075744008016350e-06  1.5368903019006191e-06  6.5122650560926986e-07  2.5789418388784291e-07  9.4995388169395660e-08  3.2410246282915505e-08  1.0204497329385454e-08  2.9557888736042694e-09  7.8556453182132054e-10  1.9114219142944705e-10  4.2500711769974118e-11  8.6225165520165342e-12  1.5941013376734208e-12  2.6827595579682315e-13  4.1063074197541820e-14  5.7125276707112111e-15  7.2215088107521815e-16  8.3227688778168875e-17  9.0653454702918118e-18  1.2634751686950245e-18  5.1997202772985155e-19  4.5599714905694923e-19  4.5122914061156366e-19  4.5113028275808235e-19  4.5136458819236299e-19  4.5162052950716100e-19  4.5187781103465421e-19  4.5213525353992290e-19  4.5239279001737931e-19  4.5265041844424221e-19  4.5290813826561844e-19  4.5316594950080468e-19  4.5342385203972796e-19  4.5368184581485603e-19  4.5393993074626356e-19  1.7251356880633018e-01  1.5935863263780750e-01  1.4084004212503212e-01  1.2585193511485313e-01  1.1016765101813324e-01  9.6068367100236585e-02  8.2629197954293743e-02  7.0420672255181616e-02  5.9271262845716724e-02  4.9311821044824171e-02  4.0495740692453666e-02  3.2818526225838460e-02  2.6223111911723038e-02  2.0646352706386501e-02  1.6004351743084018e-02  1.2204960775269058e-02  9.1488190697089043e-03  6.7351108366410957e-03  4.8648409999501466e-03  3.4443646647612626e-03  2.3878301700720030e-03  1.6189755235905415e-03  1.0720819152509854e-03  6.9222645473768793e-04  4.3490202984832653e-04  2.6514637084114724e-04  1.5632768093234073e-04  8.8756172728156988e-05  4.8284627030275806e-05  2.5030051659534637e-05  1.2292212385304229e-05  5.6858135204924630e-06  2.4634616091473454e-06  9.9468005153582239e-07  3.7259838395041141e-07  1.2897620301835113e-07  4.1117631506805789e-08  1.2038218327452439e-08  3.2290730262682710e-09  7.9197794971692365e-10  1.7731745826928602e-10  3.6190825464410685e-11  6.7260591876025163e-12  1.1371784762794294e-12  1.7476837094120820e-13  2.4399816281611880e-14  3.0932553454173032e-15  3.5630563384052249e-16  3.7675201953508933e-17  4.0653709603210178e-18  8.5398524344010746e-19  5.7631773426481567e-19  5.5483183464407287e-19  5.5358954528763386e-19  5.5379414821651682e-19  5.5409259777074363e-19  5.5439659096403101e-19  5.5470098980921645e-19  5.5500550173316000e-19  5.5531011832137648e-19  5.5561483732308846e-19  5.5591965909267987e-19  5.5622458337905344e-19  5.5652961013002939e-19  5.5683473923502081e-19  2.4254469383327004e-01  2.2737441573495451e-01  2.0559818165826937e-01  1.8738126601971433e-01  1.6771879046894528e-01  1.4950472069769902e-01  1.3159904924035123e-01  1.1483374843064542e-01  9.9044688986702739e-02  8.4499714259917896e-02  7.1216474269613403e-02  5.9278289901034002e-02  4.8688465637405573e-02  3.9437915894788594e-02  3.1478493850325584e-02  2.4740092625832447e-02  1.9129893952073953e-02  1.4540359807742242e-02  1.0853942723794087e-02  7.9491676237678256e-03  5.7056410290813242e-03  4.0086204314748837e-03  2.7525804314653835e-03  1.8437976302305809e-03  1.2018181450657839e-03  7.5983443096237573e-04  4.6407706485085057e-04  2.7247669703870720e-04  1.5294046323280366e-04  8.1579184280563546e-05  4.1102830183963628e-05  1.9447319804735379e-05  8.5938769801539905e-06  3.5297928608230009e-06  1.3418257956271266e-06  4.7038085942985180e-07  1.5159111203524039e-07  4.4797031445598186e-08  1.2112783390164705e-08  2.9914656435055958e-09  6.7379531950065984e-10  1.3824339065317514e-10  2.5810275891889695e-11  4.3813445577720454e-12  6.7574906236636791e-13  9.4640386099495020e-14  1.2030585507486658e-14  1.3879967808103302e-15  1.4577680082896848e-16  1.4436211109442