<?xml version="1.0"?>
<VTKFile type="UnstructuredGrid"  version="0.1"  >
<UnstructuredGrid>
<Piece  NumberOfPoints="4225" NumberOfCells="8192">
<Points>
<DataArray  type="Float64"  NumberOfComponents="3"  format="ascii">0 0 0  0.015625 0 0  0.03125 0 0  0.046875 0 0  0.0625 0 0  0.078125 0 0  0.09375 0 0  0.109375 0 0  0.125 0 0  0.140625 0 0  0.15625 0 0  0.171875 0 0  0.1875 0 0  0.203125 0 0  0.21875 0 0  0.234375 0 0  0.25 0 0  0.265625 0 0  0.28125 0 0  0.296875 0 0  0.3125 0 0  0.328125 0 0  0.34375 0 0  0.359375 0 0  0.375 0 0  0.390625 0 0  0.40625 0 0  0.421875 0 0  0.4375 0 0  0.453125 0 0  0.46875 0 0  0.484375 0 0  0.5 0 0  0.515625 0 0  0.53125 0 0  0.546875 0 0  0.5625 0 0  0.578125 0 0  0.59375 0 0  0.609375 0 0  0.625 0 0  0.640625 0 0  0.65625 0 0  0.671875 0 0  0.6875 0 0  0.703125 0 0  0.71875 0 0  0.734375 0 0  0.75 0 0  0.765625 0 0  0.78125 0 0  0.796875 0 0  0.8125 0 0  0.828125 0 0  0.84375 0 0  0.859375 0 0  0.875 0 0  0.890625 0 0  0.90625 0 0  0.921875 0 0  0.9375 0 0  0.953125 0 0  0.96875 0 0  0.984375 0 0  1 0 0  0 0.015625 0  0.015625 0.015625 0  0.03125 0.015625 0  0.046875 0.015625 0  0.0625 0.015625 0  0.078125 0.015625 0  0.09375 0.015625 0  0.109375 0.015625 0  0.125 0.015625 0  0.140625 0.015625 0  0.15625 0.015625 0  0.171875 0.015625 0  0.1875 0.015625 0  0.203125 0.015625 0  0.21875 0.015625 0  0.234375 0.015625 0  0.25 0.015625 0  0.265625 0.015625 0  0.28125 0.015625 0  0.296875 0.015625 0  0.3125 0.015625 0  0.328125 0.015625 0  0.34375 0.015625 0  0.359375 0.015625 0  0.375 0.015625 0  0.390625 0.015625 0  0.40625 0.015625 0  0.421875 0.015625 0  0.4375 0.015625 0  0.453125 0.015625 0  0.46875 0.015625 0  0.484375 0.015625 0  0.5 0.015625 0  0.515625 0.015625 0  0.53125 0.015625 0  0.546875 0.015625 0  0.5625 0.015625 0  0.578125 0.015625 0  0.59375 0.015625 0  0.609375 0.015625 0  0.625 0.015625 0  0.640625 0.015625 0  0.65625 0.015625 0  0.671875 0.015625 0  0.6875 0.015625 0  0.703125 0.015625 0  0.71875 0.015625 0  0.734375 0.015625 0  0.75 0.015625 0  0.765625 0.015625 0  0.78125 0.015625 0  0.796875 0.015625 0  0.8125 0.015625 0  0.828125 0.015625 0  0.84375 0.015625 0  0.859375 0.015625 0  0.875 0.015625 0  0.890625 0.015625 0  0.90625 0.015625 0  0.921875 0.015625 0  0.9375 0.015625 0  0.953125 0.015625 0  0.96875 0.015625 0  0.984375 0.015625 0  1 0.015625 0  0 0.03125 0  0.015625 0.03125 0  0.03125 0.03125 0  0.046875 0.03125 0  0.0625 0.03125 0  0.078125 0.03125 0  0.09375 0.03125 0  0.109375 0.03125 0  0.125 0.03125 0  0.140625 0.03125 0  0.15625 0.03125 0  0.171875 0.03125 0  0.1875 0.03125 0  0.203125 0.03125 0  0.21875 0.03125 0  0.234375 0.03125 0  0.25 0.03125 0  0.265625 0.03125 0  0.28125 0.03125 0  0.296875 0.03125 0  0.3125 0.03125 0  0.328125 0.03125 0  0.34375 0.03125 0  0.359375 0.03125 0  0.375 0.03125 0  0.390625 0.03125 0  0.40625 0.03125 0  0.421875 0.03125 0  0.4375 0.03125 0  0.453125 0.03125 0  0.46875 0.03125 0  0.484375 0.03125 0  0.5 0.03125 0  0.515625 0.03125 0  0.53125 0.03125 0  0.546875 0.03125 0  0.5625 0.03125 0  0.578125 0.03125 0  0.59375 0.03125 0  0.609375 0.03125 0  0.625 0.03125 0  0.640625 0.03125 0  0.65625 0.03125 0  0.671875 0.03125 0  0.6875 0.03125 0  0.703125 0.03125 0  0.71875 0.03125 0  0.734375 0.03125 0  0.75 0.03125 0  0.765625 0.03125 0  0.78125 0.03125 0  0.796875 0.03125 0  0.8125 0.03125 0  0.828125 0.03125 0  0.84375 0.03125 0  0.859375 0.03125 0  0.875 0.03125 0  0.890625 0.03125 0  0.90625 0.03125 0  0.921875 0.03125 0  0.9375 0.03125 0  0.953125 0.03125 0  0.96875 0.03125 0  0.984375 0.03125 0  1 0.03125 0  0 0.046875 0  0.015625 0.046875 0  0.03125 0.046875 0  0.046875 0.046875 0  0.0625 0.046875 0  0.078125 0.046875 0  0.09375 0.046875 0  0.109375 0.046875 0  0.125 0.046875 0  0.140625 0.046875 0  0.15625 0.046875 0  0.171875 0.046875 0  0.1875 0.046875 0  0.203125 0.046875 0  0.21875 0.046875 0  0.234375 0.046875 0  0.25 0.046875 0  0.265625 0.046875 0  0.28125 0.046875 0  0.296875 0.046875 0  0.3125 0.046875 0  0.328125 0.046875 0  0.34375 0.046875 0  0.359375 0.046875 0  0.375 0.046875 0  0.390625 0.046875 0  0.40625 0.046875 0  0.421875 0.046875 0  0.4375 0.046875 0  0.453125 0.046875 0  0.46875 0.046875 0  0.484375 0.046875 0  0.5 0.046875 0  0.515625 0.046875 0  0.53125 0.046875 0  0.546875 0.046875 0  0.5625 0.046875 0  0.578125 0.046875 0  0.59375 0.046875 0  0.609375 0.046875 0  0.625 0.046875 0  0.640625 0.046875 0  0.65625 0.046875 0  0.671875 0.046875 0  0.6875 0.046875 0  0.703125 0.046875 0  0.71875 0.046875 0  0.734375 0.046875 0  0.75 0.046875 0  0.765625 0.046875 0  0.78125 0.046875 0  0.796875 0.046875 0  0.8125 0.046875 0  0.828125 0.046875 0  0.84375 0.046875 0  0.859375 0.046875 0  0.875 0.046875 0  0.890625 0.046875 0  0.90625 0.046875 0  0.921875 0.046875 0  0.9375 0.046875 0  0.953125 0.046875 0  0.96875 0.046875 0  0.984375 0.046875 0  1 0.046875 0  0 0.0625 0  0.015625 0.0625 0  0.03125 0.0625 0  0.046875 0.0625 0  0.0625 0.0625 0  0.078125 0.0625 0  0.09375 0.0625 0  0.109375 0.0625 0  0.125 0.0625 0  0.140625 0.0625 0  0.15625 0.0625 0  0.171875 0.0625 0  0.1875 0.0625 0  0.203125 0.0625 0  0.21875 0.0625 0  0.234375 0.0625 0  0.25 0.0625 0  0.265625 0.0625 0  0.28125 0.0625 0  0.296875 0.0625 0  0.3125 0.0625 0  0.328125 0.0625 0  0.34375 0.0625 0  0.359375 0.0625 0  0.375 0.0625 0  0.390625 0.0625 0  0.40625 0.0625 0  0.421875 0.0625 0  0.4375 0.0625 0  0.453125 0.0625 0  0.46875 0.0625 0  0.484375 0.0625 0  0.5 0.0625 0  0.515625 0.0625 0  0.53125 0.0625 0  0.546875 0.0625 0  0.5625 0.0625 0  0.578125 0.0625 0  0.59375 0.0625 0  0.609375 0.0625 0  0.625 0.0625 0  0.640625 0.0625 0  0.65625 0.0625 0  0.671875 0.0625 0  0.6875 0.0625 0  0.703125 0.0625 0  0.71875 0.0625 0  0.734375 0.0625 0  0.75 0.0625 0  0.765625 0.0625 0  0.78125 0.0625 0  0.796875 0.0625 0  0.8125 0.0625 0  0.828125 0.0625 0  0.84375 0.0625 0  0.859375 0.0625 0  0.875 0.0625 0  0.890625 0.0625 0  0.90625 0.0625 0  0.921875 0.0625 0  0.9375 0.0625 0  0.953125 0.0625 0  0.96875 0.0625 0  0.984375 0.0625 0  1 0.0625 0  0 0.078125 0  0.015625 0.078125 0  0.03125 0.078125 0  0.046875 0.078125 0  0.0625 0.078125 0  0.078125 0.078125 0  0.09375 0.078125 0  0.109375 0.078125 0  0.125 0.078125 0  0.140625 0.078125 0  0.15625 0.078125 0  0.171875 0.078125 0  0.1875 0.078125 0  0.203125 0.078125 0  0.21875 0.078125 0  0.234375 0.078125 0  0.25 0.078125 0  0.265625 0.078125 0  0.28125 0.078125 0  0.296875 0.078125 0  0.3125 0.078125 0  0.328125 0.078125 0  0.34375 0.078125 0  0.359375 0.078125 0  0.375 0.078125 0  0.390625 0.078125 0  0.40625 0.078125 0  0.421875 0.078125 0  0.4375 0.078125 0  0.453125 0.078125 0  0.46875 0.078125 0  0.484375 0.078125 0  0.5 0.078125 0  0.515625 0.078125 0  0.53125 0.078125 0  0.546875 0.078125 0  0.5625 0.078125 0  0.578125 0.078125 0  0.59375 0.078125 0  0.609375 0.078125 0  0.625 0.078125 0  0.640625 0.078125 0  0.65625 0.078125 0  0.671875 0.078125 0  0.6875 0.078125 0  0.703125 0.078125 0  0.71875 0.078125 0  0.734375 0.078125 0  0.75 0.078125 0  0.765625 0.078125 0  0.78125 0.078125 0  0.796875 0.078125 0  0.8125 0.078125 0  0.828125 0.078125 0  0.84375 0.078125 0  0.859375 0.078125 0  0.875 0.078125 0  0.890625 0.078125 0  0.90625 0.078125 0  0.921875 0.078125 0  0.9375 0.078125 0  0.953125 0.078125 0  0.96875 0.078125 0  0.984375 0.078125 0  1 0.078125 0  0 0.09375 0  0.015625 0.09375 0  0.03125 0.09375 0  0.046875 0.09375 0  0.0625 0.09375 0  0.078125 0.09375 0  0.09375 0.09375 0  0.109375 0.09375 0  0.125 0.09375 0  0.140625 0.09375 0  0.15625 0.09375 0  0.171875 0.09375 0  0.1875 0.09375 0  0.203125 0.09375 0  0.21875 0.09375 0  0.234375 0.09375 0  0.25 0.09375 0  0.265625 0.09375 0  0.28125 0.09375 0  0.296875 0.09375 0  0.3125 0.09375 0  0.328125 0.09375 0  0.34375 0.09375 0  0.359375 0.09375 0  0.375 0.09375 0  0.390625 0.09375 0  0.40625 0.09375 0  0.421875 0.09375 0  0.4375 0.09375 0  0.453125 0.09375 0  0.46875 0.09375 0  0.484375 0.09375 0  0.5 0.09375 0  0.515625 0.09375 0  0.53125 0.09375 0  0.546875 0.09375 0  0.5625 0.09375 0  0.578125 0.09375 0  0.59375 0.09375 0  0.609375 0.09375 0  0.625 0.09375 0  0.640625 0.09375 0  0.65625 0.09375 0  0.671875 0.09375 0  0.6875 0.09375 0  0.703125 0.09375 0  0.71875 0.09375 0  0.734375 0.09375 0  0.75 0.09375 0  0.765625 0.09375 0  0.78125 0.09375 0  0.796875 0.09375 0  0.8125 0.09375 0  0.828125 0.09375 0  0.84375 0.09375 0  0.859375 0.09375 0  0.875 0.09375 0  0.890625 0.09375 0  0.90625 0.09375 0  0.921875 0.09375 0  0.9375 0.09375 0  0.953125 0.09375 0  0.96875 0.09375 0  0.984375 0.09375 0  1 0.09375 0  0 0.109375 0  0.015625 0.109375 0  0.03125 0.109375 0  0.046875 0.109375 0  0.0625 0.109375 0  0.078125 0.109375 0  0.09375 0.109375 0  0.109375 0.109375 0  0.125 0.109375 0  0.140625 0.109375 0  0.15625 0.109375 0  0.171875 0.109375 0  0.1875 0.109375 0  0.203125 0.109375 0  0.21875 0.109375 0  0.234375 0.109375 0  0.25 0.109375 0  0.265625 0.109375 0  0.28125 0.109375 0  0.296875 0.109375 0  0.3125 0.109375 0  0.328125 0.109375 0  0.34375 0.109375 0  0.359375 0.109375 0  0.375 0.109375 0  0.390625 0.109375 0  0.40625 0.109375 0  0.421875 0.109375 0  0.4375 0.109375 0  0.453125 0.109375 0  0.46875 0.109375 0  0.484375 0.109375 0  0.5 0.109375 0  0.515625 0.109375 0  0.53125 0.109375 0  0.546875 0.109375 0  0.5625 0.109375 0  0.578125 0.109375 0  0.59375 0.109375 0  0.609375 0.109375 0  0.625 0.109375 0  0.640625 0.109375 0  0.65625 0.109375 0  0.671875 0.109375 0  0.6875 0.109375 0  0.703125 0.109375 0  0.71875 0.109375 0  0.734375 0.109375 0  0.75 0.109375 0  0.765625 0.109375 0  0.78125 0.109375 0  0.796875 0.109375 0  0.8125 0.109375 0  0.828125 0.109375 0  0.84375 0.109375 0  0.859375 0.109375 0  0.875 0.109375 0  0.890625 0.109375 0  0.90625 0.109375 0  0.921875 0.109375 0  0.9375 0.109375 0  0.953125 0.109375 0  0.96875 0.109375 0  0.984375 0.109375 0  1 0.109375 0  0 0.125 0  0.015625 0.125 0  0.03125 0.125 0  0.046875 0.125 0  0.0625 0.125 0  0.078125 0.125 0  0.09375 0.125 0  0.109375 0.125 0  0.125 0.12
[...]
<PointData  Scalars="f_4824"> 
<DataArray  type="Float64"  Name="f_4824"  format="ascii">2.8901582681258814e-01  3.3207033095991995e-01  3.9366167602996344e-01  4.4770341049974144e-01  4.9559700586354355e-01  5.3153164801622366e-01  5.5226772436596394e-01  5.5518150707475211e-01  5.3945463359218815e-01  5.0609290677536767e-01  4.5791153754271152e-01  3.9912973237186244e-01  3.3475067031601080e-01  2.6982611249897676e-01  2.0877018423293311e-01  1.5485588177364448e-01  1.0997653018318179e-01  7.4680799853654195e-02  4.8424269221392431e-02  2.9940267563188717e-02  1.7626448974441818e-02  9.8662796803990153e-03  5.2428742856671364e-03  2.6408663738854495e-03  1.2589374127457166e-03  5.6708681152228661e-04  2.4097836939185690e-04  9.6443982582183950e-05  3.6292611563082352e-05  1.2819736620397363e-05  4.2435238751318733e-06  1.3141046361208097e-06  3.8006844400282380e-07  1.0249499115204196e-07  2.5730280428851484e-08  6.0033752707154205e-09  1.2998220268982941e-09  2.6077296514386898e-10  4.8407521716219336e-11  8.3032514495823604e-12  1.3143695539498802e-12  1.9178291843509883e-13  2.5767733005748238e-14  3.1863869956357752e-15  3.6396114879207157e-16  4.0068657762382303e-17  5.9684428210125947e-18  2.6769013819932923e-18  2.3857834813074513e-18  2.3622037507236976e-18  2.3604554874149272e-18  2.3603368788174940e-18  2.3603295173543983e-18  2.3603290968665176e-18  2.3603290724643531e-18  2.3603290684904096e-18  2.3603290654869508e-18  2.3603290625115970e-18  2.3603290596065393e-18  2.3603290564573696e-18  2.3603290497594113e-18  2.3603290293015710e-18  2.3603290509153271e-18  2.3603298446999400e-18  2.3603291072815943e-18  2.5754327015086764e-01  2.9929554605271486e-01  3.6484584510416146e-01  4.2217099544020820e-01  4.7681189974005672e-01  5.2153966698598375e-01  5.5285770471803375e-01  5.6712482609093862e-01  5.6244049631930315e-01  5.3866657641034132e-01  4.9765763162809518e-01  4.4300848193254994e-01  3.7953961903763600e-01  3.1256850591158031e-01  2.4713964955756573e-01  1.8737036142139099e-01  1.3603748666525697e-01  9.4458064313241247e-02  6.2639903644651385e-02  3.9617664052719728e-02  2.3863376509824868e-02  1.3669267354784954e-02  7.4349824042493863e-03  3.8341902124210095e-03  1.8717655951592273e-03  8.6362867760973305e-04  3.7601414250558864e-04  1.5423339440143511e-04  5.9503066195252326e-05  2.1556243349893156e-05  7.3209117936892675e-06  2.3270404425035665e-06  6.9116860105015374e-07  1.9151830518777643e-07  4.9431302873282880e-08  1.1865801936008495e-08  2.6451838863171251e-09  5.4684654435872641e-10  1.0469917005124546e-10  1.8541287097054321e-11  3.0334867694902315e-12  4.5801046584104495e-13  6.3754777609503569e-14  8.1759635281380175e-15  9.6677350446572609e-16  1.0700598734639457e-16  1.2795454757735218e-17  3.3160462322681175e-18  2.4406673415785030e-18  2.3665121721671095e-18  2.3607519792054707e-18  2.3603418378348336e-18  2.3603150775952434e-18  2.3603134748901102e-18  2.3603133843327837e-18  2.3603133765951714e-18  2.3603133730430201e-18  2.3603133696248758e-18  2.3603133662455844e-18  2.3603133630122269e-18  2.3603133596020113e-18  2.3603133507042608e-18  2.3603133130148814e-18  2.3603132981441889e-18  2.3603150976119775e-18  2.1500231950028040e-01  2.5314672284584394e-01  3.1888061076911495e-01  3.7920607544117324e-01  4.4177894103802157e-01  4.9794762086216743e-01  5.4407083073818885e-01  5.7521272387697198e-01  5.8793833672298768e-01  5.8031591268084171e-01  5.5251979942241747e-01  5.0685144550061423e-01  4.4745773942892331e-01  3.7969634094647442e-01  3.0931061732290960e-01  2.4158711191808829e-01  1.8067788661250378e-01  1.2921271633270839e-01  8.8242122919063803e-02  5.7464954853477808e-02  3.5633392952160968e-02  2.1008425619674594e-02  1.1758509380160691e-02  6.2381974913649088e-03  3.1320295159723444e-03  1.4857690291599597e-03  6.6484834390206850e-04  2.8016672476862634e-04  1.1099451780818988e-04  4.1270472795590984e-05  1.4377659127279042e-05  4.6849421514420080e-06  1.4254288953009964e-06  4.0427290379841432e-07  1.0669929282554151e-07  2.6162967973769766e-08  5.9503875918699609e-09  1.2532751834626774e-09  2.4407233699740065e-10  4.3884236930643023e-11  7.2741529757354356e-12  1.1100038899448035e-12  1.5571761478168281e-13  2.0056965799448588e-14  2.3703769669718713e-15  2.5836522244039211e-16  2.7664268999683232e-17  4.6435160276400020e-18  2.5480506572801397e-18  2.3743363005041618e-18  2.3612452266310862e-18  2.3603504327244341e-18  2.3602951217915008e-18  2.3602920377632366e-18  2.3602918808696259e-18  2.3602918702485798e-18  2.3602918661969606e-18  2.3602918622955519e-18  2.3602918583714943e-18  2.3602918544380709e-18  2.3602918509982267e-18  2.3602918504201118e-18  2.3602918536593681e-18  2.3602917693144144e-18  2.3602905209959753e-18  1.7731926945652604e-01  2.1369492604603202e-01  2.7733847185369032e-01  3.3799485728658935e-01  4.0416301838317215e-01  4.6716930526159861e-01  5.2375635191072867e-01  5.6823800613850228e-01  5.9614293887102698e-01  6.0403688236137010e-01  5.9045269522533350e-01  5.5616370391703751e-01  5.0419104266113068e-01  4.3936601161646788e-01  3.6757581771113113e-01  2.9484386849763794e-01  2.2645537654909337e-01  1.6631213600857789e-01  1.1662884552144916e-01  7.7983577513614621e-02  4.9644871422788769e-02  3.0044384043712718e-02  1.7258324259739919e-02  9.3949570742323900e-03  4.8389694797301708e-03  2.3542994099563985e-03  1.0801879337429560e-03  4.6658952928652325e-04  1.8942239124538539e-04  7.2151774272671091e-05  2.5741867500897661e-05  8.5875889508573478e-06  2.6742893865760932e-06  7.7612349228093272e-07  2.0957255407191364e-07  5.2569882176999739e-08  1.2231630227153932e-08  2.6360656730622283e-09  5.2550048636957213e-10  9.6783906524099639e-11  1.6450134744911383e-11  2.5778537511048246e-12  3.7215900971383874e-13  4.9468781585844315e-14  6.0535253149313380e-15  6.8350211804899915e-16  7.2917407124782078e-17  9.0884887895504038e-18  2.9512721912251101e-18  2.4081374570379554e-18  2.3638540425248239e-18  2.3605236576024376e-18  2.3602923165028282e-18  2.3602774470667764e-18  2.3602765592696697e-18  2.3602765064025842e-18  2.3602764999531960e-18  2.3602764957285289e-18  2.3602764916069290e-18  2.3602764874217758e-18  2.3602764829463518e-18  2.3602764775647681e-18  2.3602764748539370e-18  2.3602765385596836e-18  2.3602772725130175e-18  1.4185231396073750e-01  1.7425594478753986e-01  2.3268801266816985e-01  2.9130911144502586e-01  3.5849279456616001e-01  4.2634105040294629e-01  4.9197044953554819e-01  5.4933283995086712e-01  5.9317632314153446e-01  6.1863639205191367e-01  6.2245702485484644e-01  6.0351454883091538e-01  5.6317890444159668e-01  5.0517830417349607e-01  4.3503904718905767e-01  3.5919254900322684e-01  2.8395986200239115e-01  2.1464289658030314e-01  1.5491362182390994e-01  1.0659675397962029e-01  6.9828332285452002e-02  4.3479970532955943e-02  2.5694386134977116e-02  1.4387518787854912e-02  7.6212467493944249e-03  3.8127664931490784e-03  1.7984541369518668e-03  7.9848274601560052e-04  3.3311488928614979e-04  1.3035749574637811e-04  4.7768448255515538e-05  1.6362919212026293e-05  5.2305969811201231e-06  1.5576759508299825e-06  4.3143409300551193e-07  1.1095680468700233e-07  2.6454720895195252e-08  5.8383263501795550e-09  1.1908429426440287e-09  2.2416292812116936e-10  3.8885860672394863e-11  6.2075392773809344e-12  9.1058908367063212e-13  1.2256193744355847e-13  1.5113372460593053e-14  1.7059357773076844e-15  1.7758371762104927e-16  1.8757319126129642e-17  3.7509540912541642e-18  2.4665784138053595e-18  2.3675251180734108e-18  2.3606980847178271e-18  2.3602834072981513e-18  2.3602617884086540e-18  2.3602608776320322e-18  2.3602608486896335e-18  2.3602608449419679e-18  2.3602608407673465e-18  2.3602608365001162e-18  2.3602608322023928e-18  2.3602608280091765e-18  2.3602608239313464e-18  2.3602608166179117e-18  2.3602607674376597e-18  2.3602603444442979e-18  1.1071084118563113e-01  1.3897407251473665e-01  1.9127633155476953e-01  2.4613972513068774e-01  3.1148722290711017e-01  3.8081630711451603e-01  4.5186348697638667e-01  5.1885725172754782e-01  5.7626667711291457e-01  6.1823781838532899e-01  6.3997193770632743e-01  6.3842593015115356e-01  6.1301559225276026e-01  5.6583992217296564e-01  5.0143251214903517e-01  4.2603797749748201e-01  3.4658162119556862e-01  2.6957060699864066e-01  2.0018040033712595e-01  1.4171262093230030e-01  9.5493377973249791e-02  6.1156077846816419e-02  3.7163456985136796e-02  2.1394219500140664e-02  1.1648248842863883e-02  5.9879225238727877e-03  2.9013465669742197e-03  1.3227522538733596e-03  5.6643975801782718e-04  2.2743750078180224e-04  8.5475051833745769e-05  3.0014001205927303e-05  9.8301502518137788e-06  2.9978026774118319e-06  8.4981086226187634e-07  2.2356673431426266e-07  5.4496900206807319e-08  1.2290242594115817e-08  2.5606722150718750e-09  4.9224017172920430e-10  8.7198125899996614e-11  1.4219571036460015e-11  2.1327426305149181e-12  2.9403031160520670e-13  3.7250241576914471e-14  4.3386913129474992e-15  4.6659999713170316e-16  4.8130138553434714e-17  6.5258462991679635e-18  2.7114782070075872e-18  2.3878182870900000e-18  2.3622750110080571e-18  2.3603886909920494e-18  2.3602574729929883e-18  2.3602488239295897e-18  2.3602482776614122e-18  2.3602482414859759e-18  2.3602482353779157e-18  2.3602482310028900e-18  2.3602482266357468e-18  2.3602482222271121e-18  2.3602482178939207e-18  2.3602482159569494e-18  2.3602482385612021e-18  2.3602484659471017e-18  8.3998714957110740e-02  1.0770894800090336e-01  1.5274360876042417e-01  2.0204623898741000e-01  2.6312701840699509e-01  3.3109290361871213e-01  4.0445149138199910e-01  4.7815915738034626e-01  5.4684644410399086e-01  6.0415250370185902e-01  6.4407302800716715e-01  6.6175078671625576e-01  6.5446570245849245e-01  6.2223647283044314e-01  5.6797490352779656e-01  4.9707341394966975e-01  4.1651066067073617e-01  3.3367665331829782e-01  2.5520131878960334e-01  1.8605614535289586e-01  1.2910387108180096e-01  8.5130001154384294e-02  5.3256493406856772e-02  3.1556783513253681e-02  1.7681258451880795e-02  9.3517248412989511e-03  4.6609639421639083e-03  2.1852658636325574e-03  9.6207859125942445e-04  3.9703137721996929e-04  1.5331255604892857e-04  5.5297278081434455e-05  1.8597100122431777e-05  5.8217868069146784e-06  1.6935852145175324e-06  4.5707504956657298e-07  1.1426447690067118e-07  2.6419112509907004e-08  5.6412679006040859e-09  1.1109211215328537e-09  2.0149290820052899e-10  3.3616087706931091e-11  5.1521920184952577e-12  7.2447697658272107e-13  9.3330975056348258e-14  1.0998012102234406e-14  1.1845014201878143e-15  1.1796530727496759e-16  1.2593572855035643e-17  3.1735773620117390e-18  2.4174398239277609e-18  2.3636934942493605e-18  2.3604036532135634e-18  2.3602416486091165e-18  2.3602366861829706e-18  2.3602367973292963e-18  2.3602368286431600e-18  2.3602368280256953e-18  2.3602368241258551e-18  2.3602368198581739e-18  2.3602368155690905e-18  2.3602368111441055e-18  2.3602368051778464e-18  2.3602367853367239e-18  2.3602366545474385e-18  6.1971895338882671e-02  8.1246533578585856e-02  1.1880402376430750e-01  1.6166743238202974e-01  2.1676740654077575e-01  2.8078982852315953e-01  3.5315664822243370e-01  4.2992977445718056e-01  5.0638533321118917e-01  5.7624881503260805e-01  6.3284853999313362e-01  6.6989044231618733e-01  6.8261631646614673e-01  6.6873256318274177e-01  6.2900057723333924e-01  5.6725098426786436e-01  4.8979169275796469e-01  4.0432323123633296e-01  3.1862445717596682e-01  2.3933017271904872e-01  1.7108089312755079e-01  1.1619632500696894e-01  7.4860922481995523e-02  4.5673020400138403e-02  2.6342798510715557e-02  1.4338541719410987e-02  7.3522706663830175e-03  3.5451562532906231e-03  1.6045919765453663e-03  6.8049359328949729e-04  2.6991602689000203e-04  9.9953330932304939e-05  3.4495001268472998e-05  1.1074987620460373e-05  3.3022661497153846e-06  9.1292671203384849e-07  2.3362094688922166e-07  5.5254071440041146e-08  1.2060061263704827e-08  2.4258230422052053e-09  4.4908159913330374e-10  7.6423624455270352e-11  1.1942759887127014e-11  1.7122742496928472e-12  2.2509457947780080e-13  2.7127261652125102e-14  2.9999403609214463e-15  3.0658185635627303e-16  3.0802622520449283e-17  4.8236845555288765e-18  2.5597182910633705e-18  2.3755344187533356e-18  2.3613586700476655e-18  2.3603092478254739e-18  2.3602333472232981e-18  2.3602279334497983e-18  2.3602275519638098e-18  2.3602275222576723e-18  2.3602275166495396e-18  2.3602275124171321e-18  2.3602275082717143e-18  2.3602275041875753e-18  2.3602275010119418e-18  2.3602275054941231e-18  2.3602275696194590e-18  4.4393790512419269e-02  5.9527673380509266e-02  8.9775419553551533e-02  1.2571552252690285e-01  1.7361633827941239e-01  2.3164608017119312e-01  3.0017326368200387e-01  3.7656097301348862e-01  4.5710532422926370e-01  5.3616318397570917e-01  6.0699790647655250e-01  6.6241976206755904e-01  6.9595896162140136e-01  7.0301501931581789e-01  6.8184866237569997e-01  6.3408551794266543e-01  5.6457410832797728e-01  4.8058077766826840e-01  3.9050390331752000e-01  3.0242752978934834e-01  2.2287433650756339e-01  1.5603797242041165e-01  1.0361062011231674e-01  6.5138650069225701e-02  3.8705824205388650e-02  2.1699363558751766e-02  1.1456982976979719e-02  5.6866628820416961e-03  2.6485895678818815e-03  1.1554355303059509e-03  4.7125506565875265e-04  1.7937272601189859e-04  6.3601490724798351e-05  2.0971196522150295e-05  6.4191463385782358e-06  1.8209823281332835e-06  4.7798279406693050e-07  1.1591296197552875e-07  2.5931935086648403e-08  5.3447615464123259e-09  1.0135796642978062e-09  1.7664698162669076e-10  2.8260992382350220e-11  4.1460460614054291e-12  5.5714988928693019e-13  6.8497737685280069e-14  7.6939087904699969e-15  7.8938369984095020e-16  7.5445037121972164e-17  8.4739006574318182e-18  2.8141603655686986e-18  2.3891747446436537e-18  2.3616712502233648e-18  2.3602570334563944e-18  2.3602168179926069e-18  2.3602191601435546e-18  2.3602196943143460e-18  2.3602197498995758e-18  2.3602197514063837e-18  2.3602197478933142e-18  2.3602197440176093e-18  2.3602197400139338e-18  2.3602197354799430e-18  2.3602197267621957e-18  2.3602196861520438e-18  3.0855912674320383e-02  4.2344649433612457e-02  6.5896576987240302e-02  9.5013649036660000e-02  1.3522083929038403e-01  1.8592439177161263e-01  2.4833201595666438e-01  3.2115180924062581e-01  4.0195307426148735e-01  4.8619012449751470e-01  5.6768386804939308e-01  6.3902214914065858e-01  6.9258770046110618e-01  7.2177335498635997e-01  7.2226546732863439e-01  6.9302199119029573e-01  6.3667487251078825e-01  5.5918664011715036e-01  4.6880645549090438e-01  3.7457510196918664e-01  2.8476413659078142e-01  2.0563994370224206e-01  1.4081960751372855e-01  9.1283840941471253e-02  5.5914804410068630e-02  3.2305460433760438e-02  1.7572946130220632e-02  8.9831314648598105e-03  4.3073992173370936e-03  1.9337230968563424e-03  8.1124948473352556e-04  3.1746096163868994e-04  1.1566619401120212e-04  3.9167086896308094e-05  1.2304714591010630e-05  3.5802745389360781e-06  9.6325383317512627e-07  2.3925398707800664e-07  5.4779478356680066e-08  1.1545077923232847e-08  2.2367176584443926e-09  3.9784331068010925e-10  6.4891703987249059e-11  9.6956317520935810e-12  1.3257602775040146e-12  1.6578427964046180e-13  1.8953896157504899e-14  1.9837042725598922e-15  1.9216302615226482e-16  1.9100066251496249e-17  3.7333312234724641e-18  2.4669557619477584e-18  2.3683116387769205e-18  2.3608340195502017e-18  2.3602627598756135e-18  2.3602177176252145e-18  2.3602140725059465e-18  2.3602137752505900e-18  2.3602137493445038e-18  2.3602137441205652e-18  2.3602137404460977e-18  2.3602137368368175e-18  2.3602137335172411e-18  2.3602137324372428e-18  2.3602137483332553e-18  2.0785045152913236e-02  2.9208100365300554e-02  4.6919582523444775e-02  6.9688738476551118e-02  1.0225133429274182e-01  1.4495555700239424e-01  1.9966992796978283e-01  2.6635063638054512e-01  3.4392294275890684e-01  4.2924490822662237e-01  5.1722815531590760e-01  6.0093125534285552e-01  6.7230478713107622e-01  7.2329612573560798e-01  7.4725460422298462e-01  7.4028377475243667e-01  7.0220029500832848e-01  6.3678603864550865e-01  5.5120487476524793e-01  4.5469212718356916e-01  3.5684982575630114e-01  2.6599743600601006e-01  1.8799045627591204e-01  1.2574374706230129e-01  7.9458423487935151e-02  4.7347152162887561e-02  2.6554281844506297e-02  1.3990722093617894e-02  6.9116775606521286e-03  3.1954779980541566e-03  1.3799735513426469e-03  5.5560786883037197e-04  2.0817087497883589e-04  7.2449039534031821e-05  2.3379443799941374e-05  6.9835745982537193e-06  1.9277314546691566e-06  4.9097307143743437e-07  1.1520368148227487e-07  2.4869612714555710e-08  4.9329436804434432e-09  8.9797530565386943e-10  1.4985713407293409e-10  2.2904694373232528e-11  3.2034909868189192e-12  4.0964921169766588e-13  4.7853060753826769e-14  5.1017213174473536e-15  4.9705280894027675e-16  4.5848762566932034e-17  5.7896800278815844e-18  2.5969821167317880e-18  2.3735944627831501e-18  2.3606804287479826e-18  2.3601928293384029e-18  2.3602037750266057e-18  2.3602085988148795e-18  2.3602092464925003e-18  2.3602093100769773e-18  2.3602093125931674e-18  2.3602093098668090e-18  2.3602093066038762e-18  2.3602093031451752e-18  2.3602092984608233e-18  2.3602092847629154e-18  1.3555938941906069e-02  1.9518081706169699e-02  3.2379064807742011e-02  4.9566071326432190e-02  7.5016562106838741e-02  1.0970332426742271e-01  1.5591954463111676e-01  2.1464854449833307e-01  2.8609083712457106e-01  3.6863299208951539e-01  4.5865851654864709e-01  5.5032102692753648e-01  6.3591580327411446e-01  7.0671037392316960e-01  7.5426936057553928e-01  7.7200347297658678e-01  7.5659751140263209e-01  7.0890527217914823e-01  6.3400635998940258e-01  5.4033770221398192e-01  4.3809397560812507e-01  3.3732166781495893e-01  2.4621928879552543e-01  1.7006275317983502e-01  1.1094253627673313e-01  6.8228705191746938e-02  3.9480534600935896e-02  2.1453767090074342e-02  1.0926494544823782e-02  5.2055310155829215e-03  2.3153060446655764e-03  9.5955504533807342e-04  3.6984510132399736e-04  1.3232596407858403e-04  4.3868569771946394e-05  1.3451757729906823e-05  3.8087798507353722e-06  9.9419560055810691e-07  2.3887527252236557e-07  5.2754093024428341e-08  1.0693925567170345e-08  1.9872917975712371e-09  3.3815163539781903e-10  5.2625884572024725e-11  7.4828299161671932e-12  9.7113953722736036e-13  1.1494006329520266e-13  1.2400159706446660e-14  1.2212393461652503e-15  1.1178681467452488e-16  1.1387561087866238e-17  3.0557760177993391e-18  2.4120628182582861e-18  2.3641739909756181e-18  2.3605367226432183e-18  2.3602365708677888e-18  2.3602093384459535e-18  2.3602067537556132e-18  2.3602065124815882e-18  2.3602064888946884e-18  2.3602064845616056e-18  2.3602064816146154e-18  2.3602064788579606e-18  2.3602064767235310e-18  2.3602064793561825e-18  8.5503838539298695e-03  1.2621313649750917e-02  2.1631471082180550e-02  3.4145208260994993e-02  5.3330573460354740e-02  8.0492503909390098e-02  1.1810463992831179e-01  1.6788767162495283e-01  2.3110563330050907e-01  3.0761124698855535e-01  3.9543751309990194e-01  4.9029485385231464e-01  5.8554274979143073e-01  6.7262832178972320e-01  7.4213475742648682e-01  7.8530106095624808e-01  7.9573688820897404e-01  7.7089534614870725e-01  7.1286171747484517e-01  6.2815806396410145e-01  5.2654441094517335e-01  4.1911330172782119e-01  3.1620324220201829e-01  2.2569864505523599e-01  1.5212178842999044e-01  9.6629663715947195e-02  5.7733759421108199e-02  3.2380470027061105e-02  1.7013641745746266e-02  8.3578847066001632e-03  3.8309489096979908e-03  1.6351592271081970e-03  6.4863834902096544e-04  2.3866973394040037e-04  8.1307640172738590e-05  2.5598892483018754e-05  7.4356317584772165e-06  1.9893516859956215e-06  4.8948031620417167e-07  1.1060322883764791e-07  2.2921165391927121e-08  4.3513096016438418e-09  7.5587282650122276e-10  1.2003552253299829e-10  1.7412024046130147e-11  2.3055549674283789e-12  2.7852056169650115e-13  3.0684177189505897e-14  3.0825699794378655e-15  2.8373718735390