<?xml version="1.0"?>
<VTKFile type="UnstructuredGrid"  version="0.1"  >
<UnstructuredGrid>
<Piece  NumberOfPoints="4225" NumberOfCells="8192">
<Points>
<DataArray  type="Float64"  NumberOfComponents="3"  format="ascii">0 0 0  0.015625 0 0  0.03125 0 0  0.046875 0 0  0.0625 0 0  0.078125 0 0  0.09375 0 0  0.109375 0 0  0.125 0 0  0.140625 0 0  0.15625 0 0  0.171875 0 0  0.1875 0 0  0.203125 0 0  0.21875 0 0  0.234375 0 0  0.25 0 0  0.265625 0 0  0.28125 0 0  0.296875 0 0  0.3125 0 0  0.328125 0 0  0.34375 0 0  0.359375 0 0  0.375 0 0  0.390625 0 0  0.40625 0 0  0.421875 0 0  0.4375 0 0  0.453125 0 0  0.46875 0 0  0.484375 0 0  0.5 0 0  0.515625 0 0  0.53125 0 0  0.546875 0 0  0.5625 0 0  0.578125 0 0  0.59375 0 0  0.609375 0 0  0.625 0 0  0.640625 0 0  0.65625 0 0  0.671875 0 0  0.6875 0 0  0.703125 0 0  0.71875 0 0  0.734375 0 0  0.75 0 0  0.765625 0 0  0.78125 0 0  0.796875 0 0  0.8125 0 0  0.828125 0 0  0.84375 0 0  0.859375 0 0  0.875 0 0  0.890625 0 0  0.90625 0 0  0.921875 0 0  0.9375 0 0  0.953125 0 0  0.96875 0 0  0.984375 0 0  1 0 0  0 0.015625 0  0.015625 0.015625 0  0.03125 0.015625 0  0.046875 0.015625 0  0.0625 0.015625 0  0.078125 0.015625 0  0.09375 0.015625 0  0.109375 0.015625 0  0.125 0.015625 0  0.140625 0.015625 0  0.15625 0.015625 0  0.171875 0.015625 0  0.1875 0.015625 0  0.203125 0.015625 0  0.21875 0.015625 0  0.234375 0.015625 0  0.25 0.015625 0  0.265625 0.015625 0  0.28125 0.015625 0  0.296875 0.015625 0  0.3125 0.015625 0  0.328125 0.015625 0  0.34375 0.015625 0  0.359375 0.015625 0  0.375 0.015625 0  0.390625 0.015625 0  0.40625 0.015625 0  0.421875 0.015625 0  0.4375 0.015625 0  0.453125 0.015625 0  0.46875 0.015625 0  0.484375 0.015625 0  0.5 0.015625 0  0.515625 0.015625 0  0.53125 0.015625 0  0.546875 0.015625 0  0.5625 0.015625 0  0.578125 0.015625 0  0.59375 0.015625 0  0.609375 0.015625 0  0.625 0.015625 0  0.640625 0.015625 0  0.65625 0.015625 0  0.671875 0.015625 0  0.6875 0.015625 0  0.703125 0.015625 0  0.71875 0.015625 0  0.734375 0.015625 0  0.75 0.015625 0  0.765625 0.015625 0  0.78125 0.015625 0  0.796875 0.015625 0  0.8125 0.015625 0  0.828125 0.015625 0  0.84375 0.015625 0  0.859375 0.015625 0  0.875 0.015625 0  0.890625 0.015625 0  0.90625 0.015625 0  0.921875 0.015625 0  0.9375 0.015625 0  0.953125 0.015625 0  0.96875 0.015625 0  0.984375 0.015625 0  1 0.015625 0  0 0.03125 0  0.015625 0.03125 0  0.03125 0.03125 0  0.046875 0.03125 0  0.0625 0.03125 0  0.078125 0.03125 0  0.09375 0.03125 0  0.109375 0.03125 0  0.125 0.03125 0  0.140625 0.03125 0  0.15625 0.03125 0  0.171875 0.03125 0  0.1875 0.03125 0  0.203125 0.03125 0  0.21875 0.03125 0  0.234375 0.03125 0  0.25 0.03125 0  0.265625 0.03125 0  0.28125 0.03125 0  0.296875 0.03125 0  0.3125 0.03125 0  0.328125 0.03125 0  0.34375 0.03125 0  0.359375 0.03125 0  0.375 0.03125 0  0.390625 0.03125 0  0.40625 0.03125 0  0.421875 0.03125 0  0.4375 0.03125 0  0.453125 0.03125 0  0.46875 0.03125 0  0.484375 0.03125 0  0.5 0.03125 0  0.515625 0.03125 0  0.53125 0.03125 0  0.546875 0.03125 0  0.5625 0.03125 0  0.578125 0.03125 0  0.59375 0.03125 0  0.609375 0.03125 0  0.625 0.03125 0  0.640625 0.03125 0  0.65625 0.03125 0  0.671875 0.03125 0  0.6875 0.03125 0  0.703125 0.03125 0  0.71875 0.03125 0  0.734375 0.03125 0  0.75 0.03125 0  0.765625 0.03125 0  0.78125 0.03125 0  0.796875 0.03125 0  0.8125 0.03125 0  0.828125 0.03125 0  0.84375 0.03125 0  0.859375 0.03125 0  0.875 0.03125 0  0.890625 0.03125 0  0.90625 0.03125 0  0.921875 0.03125 0  0.9375 0.03125 0  0.953125 0.03125 0  0.96875 0.03125 0  0.984375 0.03125 0  1 0.03125 0  0 0.046875 0  0.015625 0.046875 0  0.03125 0.046875 0  0.046875 0.046875 0  0.0625 0.046875 0  0.078125 0.046875 0  0.09375 0.046875 0  0.109375 0.046875 0  0.125 0.046875 0  0.140625 0.046875 0  0.15625 0.046875 0  0.171875 0.046875 0  0.1875 0.046875 0  0.203125 0.046875 0  0.21875 0.046875 0  0.234375 0.046875 0  0.25 0.046875 0  0.265625 0.046875 0  0.28125 0.046875 0  0.296875 0.046875 0  0.3125 0.046875 0  0.328125 0.046875 0  0.34375 0.046875 0  0.359375 0.046875 0  0.375 0.046875 0  0.390625 0.046875 0  0.40625 0.046875 0  0.421875 0.046875 0  0.4375 0.046875 0  0.453125 0.046875 0  0.46875 0.046875 0  0.484375 0.046875 0  0.5 0.046875 0  0.515625 0.046875 0  0.53125 0.046875 0  0.546875 0.046875 0  0.5625 0.046875 0  0.578125 0.046875 0  0.59375 0.046875 0  0.609375 0.046875 0  0.625 0.046875 0  0.640625 0.046875 0  0.65625 0.046875 0  0.671875 0.046875 0  0.6875 0.046875 0  0.703125 0.046875 0  0.71875 0.046875 0  0.734375 0.046875 0  0.75 0.046875 0  0.765625 0.046875 0  0.78125 0.046875 0  0.796875 0.046875 0  0.8125 0.046875 0  0.828125 0.046875 0  0.84375 0.046875 0  0.859375 0.046875 0  0.875 0.046875 0  0.890625 0.046875 0  0.90625 0.046875 0  0.921875 0.046875 0  0.9375 0.046875 0  0.953125 0.046875 0  0.96875 0.046875 0  0.984375 0.046875 0  1 0.046875 0  0 0.0625 0  0.015625 0.0625 0  0.03125 0.0625 0  0.046875 0.0625 0  0.0625 0.0625 0  0.078125 0.0625 0  0.09375 0.0625 0  0.109375 0.0625 0  0.125 0.0625 0  0.140625 0.0625 0  0.15625 0.0625 0  0.171875 0.0625 0  0.1875 0.0625 0  0.203125 0.0625 0  0.21875 0.0625 0  0.234375 0.0625 0  0.25 0.0625 0  0.265625 0.0625 0  0.28125 0.0625 0  0.296875 0.0625 0  0.3125 0.0625 0  0.328125 0.0625 0  0.34375 0.0625 0  0.359375 0.0625 0  0.375 0.0625 0  0.390625 0.0625 0  0.40625 0.0625 0  0.421875 0.0625 0  0.4375 0.0625 0  0.453125 0.0625 0  0.46875 0.0625 0  0.484375 0.0625 0  0.5 0.0625 0  0.515625 0.0625 0  0.53125 0.0625 0  0.546875 0.0625 0  0.5625 0.0625 0  0.578125 0.0625 0  0.59375 0.0625 0  0.609375 0.0625 0  0.625 0.0625 0  0.640625 0.0625 0  0.65625 0.0625 0  0.671875 0.0625 0  0.6875 0.0625 0  0.703125 0.0625 0  0.71875 0.0625 0  0.734375 0.0625 0  0.75 0.0625 0  0.765625 0.0625 0  0.78125 0.0625 0  0.796875 0.0625 0  0.8125 0.0625 0  0.828125 0.0625 0  0.84375 0.0625 0  0.859375 0.0625 0  0.875 0.0625 0  0.890625 0.0625 0  0.90625 0.0625 0  0.921875 0.0625 0  0.9375 0.0625 0  0.953125 0.0625 0  0.96875 0.0625 0  0.984375 0.0625 0  1 0.0625 0  0 0.078125 0  0.015625 0.078125 0  0.03125 0.078125 0  0.046875 0.078125 0  0.0625 0.078125 0  0.078125 0.078125 0  0.09375 0.078125 0  0.109375 0.078125 0  0.125 0.078125 0  0.140625 0.078125 0  0.15625 0.078125 0  0.171875 0.078125 0  0.1875 0.078125 0  0.203125 0.078125 0  0.21875 0.078125 0  0.234375 0.078125 0  0.25 0.078125 0  0.265625 0.078125 0  0.28125 0.078125 0  0.296875 0.078125 0  0.3125 0.078125 0  0.328125 0.078125 0  0.34375 0.078125 0  0.359375 0.078125 0  0.375 0.078125 0  0.390625 0.078125 0  0.40625 0.078125 0  0.421875 0.078125 0  0.4375 0.078125 0  0.453125 0.078125 0  0.46875 0.078125 0  0.484375 0.078125 0  0.5 0.078125 0  0.515625 0.078125 0  0.53125 0.078125 0  0.546875 0.078125 0  0.5625 0.078125 0  0.578125 0.078125 0  0.59375 0.078125 0  0.609375 0.078125 0  0.625 0.078125 0  0.640625 0.078125 0  0.65625 0.078125 0  0.671875 0.078125 0  0.6875 0.078125 0  0.703125 0.078125 0  0.71875 0.078125 0  0.734375 0.078125 0  0.75 0.078125 0  0.765625 0.078125 0  0.78125 0.078125 0  0.796875 0.078125 0  0.8125 0.078125 0  0.828125 0.078125 0  0.84375 0.078125 0  0.859375 0.078125 0  0.875 0.078125 0  0.890625 0.078125 0  0.90625 0.078125 0  0.921875 0.078125 0  0.9375 0.078125 0  0.953125 0.078125 0  0.96875 0.078125 0  0.984375 0.078125 0  1 0.078125 0  0 0.09375 0  0.015625 0.09375 0  0.03125 0.09375 0  0.046875 0.09375 0  0.0625 0.09375 0  0.078125 0.09375 0  0.09375 0.09375 0  0.109375 0.09375 0  0.125 0.09375 0  0.140625 0.09375 0  0.15625 0.09375 0  0.171875 0.09375 0  0.1875 0.09375 0  0.203125 0.09375 0  0.21875 0.09375 0  0.234375 0.09375 0  0.25 0.09375 0  0.265625 0.09375 0  0.28125 0.09375 0  0.296875 0.09375 0  0.3125 0.09375 0  0.328125 0.09375 0  0.34375 0.09375 0  0.359375 0.09375 0  0.375 0.09375 0  0.390625 0.09375 0  0.40625 0.09375 0  0.421875 0.09375 0  0.4375 0.09375 0  0.453125 0.09375 0  0.46875 0.09375 0  0.484375 0.09375 0  0.5 0.09375 0  0.515625 0.09375 0  0.53125 0.09375 0  0.546875 0.09375 0  0.5625 0.09375 0  0.578125 0.09375 0  0.59375 0.09375 0  0.609375 0.09375 0  0.625 0.09375 0  0.640625 0.09375 0  0.65625 0.09375 0  0.671875 0.09375 0  0.6875 0.09375 0  0.703125 0.09375 0  0.71875 0.09375 0  0.734375 0.09375 0  0.75 0.09375 0  0.765625 0.09375 0  0.78125 0.09375 0  0.796875 0.09375 0  0.8125 0.09375 0  0.828125 0.09375 0  0.84375 0.09375 0  0.859375 0.09375 0  0.875 0.09375 0  0.890625 0.09375 0  0.90625 0.09375 0  0.921875 0.09375 0  0.9375 0.09375 0  0.953125 0.09375 0  0.96875 0.09375 0  0.984375 0.09375 0  1 0.09375 0  0 0.109375 0  0.015625 0.109375 0  0.03125 0.109375 0  0.046875 0.109375 0  0.0625 0.109375 0  0.078125 0.109375 0  0.09375 0.109375 0  0.109375 0.109375 0  0.125 0.109375 0  0.140625 0.109375 0  0.15625 0.109375 0  0.171875 0.109375 0  0.1875 0.109375 0  0.203125 0.109375 0  0.21875 0.109375 0  0.234375 0.109375 0  0.25 0.109375 0  0.265625 0.109375 0  0.28125 0.109375 0  0.296875 0.109375 0  0.3125 0.109375 0  0.328125 0.109375 0  0.34375 0.109375 0  0.359375 0.109375 0  0.375 0.109375 0  0.390625 0.109375 0  0.40625 0.109375 0  0.421875 0.109375 0  0.4375 0.109375 0  0.453125 0.109375 0  0.46875 0.109375 0  0.484375 0.109375 0  0.5 0.109375 0  0.515625 0.109375 0  0.53125 0.109375 0  0.546875 0.109375 0  0.5625 0.109375 0  0.578125 0.109375 0  0.59375 0.109375 0  0.609375 0.109375 0  0.625 0.109375 0  0.640625 0.109375 0  0.65625 0.109375 0  0.671875 0.109375 0  0.6875 0.109375 0  0.703125 0.109375 0  0.71875 0.109375 0  0.734375 0.109375 0  0.75 0.109375 0  0.765625 0.109375 0  0.78125 0.109375 0  0.796875 0.109375 0  0.8125 0.109375 0  0.828125 0.109375 0  0.84375 0.109375 0  0.859375 0.109375 0  0.875 0.109375 0  0.890625 0.109375 0  0.90625 0.109375 0  0.921875 0.109375 0  0.9375 0.109375 0  0.953125 0.109375 0  0.96875 0.109375 0  0.984375 0.109375 0  1 0.109375 0  0 0.125 0  0.015625 0.125 0  0.03125 0.125 0  0.046875 0.125 0  0.0625 0.125 0  0.078125 0.125 0  0.09375 0.125 0  0.109375 0.125 0  0.125 0.12
[...]
<PointData  Scalars="f_14444"> 
<DataArray  type="Float64"  Name="f_14444"  format="ascii">5.3946207567626013e-13  5.5554978812972413e-13  5.6432710714889372e-13  5.7067710370383669e-13  5.7435650859992812e-13  5.7506772979877573e-13  5.7253495354162561e-13  5.6651886431398835e-13  5.5683048904937456e-13  5.4334554799865858e-13  5.2601857246659822e-13  5.0489588131484860e-13  4.8012634249047242e-13  4.5196872385964990e-13  4.2079438318223729e-13  3.8708410021109089e-13  3.5141809251016571e-13  3.1445882318453907e-13  2.7692727840120911e-13  2.3957497416404917e-13  2.0315550211981301e-13  1.6839960023429461e-13  1.3599498632726793e-13  1.0656656367342623e-13  8.0647546951128132e-14  5.8633521763355898e-14  4.0722892838346988e-14  2.6863830824473892e-14  1.6737228071519335e-14  9.7965550040009985e-15  5.3607374971426323e-15  2.7305839190145747e-15  1.2898077083055303e-15  5.6314956004421020e-16  2.2665156286471501e-16  8.3895336788624988e-17  2.8508685065572488e-17  8.8838138511990377e-18  2.5404527561352201e-18  6.7165678489696551e-19  1.7020080978041082e-19  4.7712366557840412e-20  2.0487595383601069e-20  1.4983330797862970e-20  1.3971293200342424e-20  1.3802099066318303e-20  1.3776381842765711e-20  1.3772827984515051e-20  1.3772381477143475e-20  1.3772330467271700e-20  1.3772325167547465e-20  1.3772324666662429e-20  1.3772324623583697e-20  1.3772324620210570e-20  1.3772324619969955e-20  1.3772324619954303e-20  1.3772324619953374e-20  1.3772324619953322e-20  1.3772324619953307e-20  1.3772324619953307e-20  1.3772324619953313e-20  1.3772324619953310e-20  1.3772324619953307e-20  1.3772324619953307e-20  1.3772324619953310e-20  6.2473957261195510e-13  6.5823588470523841e-13  6.7909096597873941e-13  6.9927365429586739e-13  7.1752077075851246e-13  7.3340693021921961e-13  7.4644229665218035e-13  7.5612114011262822e-13  7.6193342434015456e-13  7.6338195689134835e-13  7.6000300000320937e-13  7.5139012813664835e-13  7.3722061142426304e-13  7.1728305149644656e-13  6.9150420343743601e-13  6.5997182474790288e-13  6.2294915575250610e-13  5.8087606245554762e-13  5.3435377336827274e-13  4.8411669163956809e-13  4.3100583837846487e-13  3.7596782611400728e-13  3.2009813062503975e-13  2.6471753025619232e-13  2.1142425865376589e-13  1.6203593638793179e-13  1.1836476568859538e-13  8.1861371825664741e-14  5.3263599105725556e-14  3.2417408011867127e-14  1.8362087428292629e-14  9.6375784111645222e-15  4.6699371734986620e-15  2.0825932838933772e-15  8.5255719189017996e-16  3.1969219201110422e-16  1.0961188484417557e-16  3.4315855586276023e-17  9.8019073010850839e-18  2.5574117999886126e-18  6.1517439361385484e-19  1.4302984556114577e-19  3.9006862817733494e-20  1.8244109768153513e-20  1.4491165272055013e-20  1.3877082490700896e-20  1.3786156756762550e-20  1.3773978449849962e-20  1.3772503573180692e-20  1.3772342133496562e-20  1.3772326169176931e-20  1.3772324743732662e-20  1.3772324628878470e-20  1.3772324620533530e-20  1.3772324619987282e-20  1.3772324619955113e-20  1.3772324619953410e-20  1.3772324619953325e-20  1.3772324619953313e-20  1.3772324619953307e-20  1.3772324619953310e-20  1.3772324619953307e-20  1.3772324619953307e-20  1.3772324619953304e-20  1.3772324619953310e-20  1.2327947218110357e-12  1.3949782601604305e-12  1.5145634406059577e-12  1.6447138741101582e-12  1.7810777011542372e-12  1.9226328798305024e-12  2.0676970390264710e-12  2.2141372875380032e-12  2.3593331734070731e-12  2.5001756707672682e-12  2.6330929364965505e-12  2.7541101468999564e-12  2.8589484715884834e-12  2.9431649740188816e-12  3.0023284471387888e-12  3.0322144582316622e-12  3.0289871163419974e-12  2.9893238811675627e-12  2.9104542403735556e-12  2.7901507765956514e-12  2.6268355700303413e-12  2.4200787529905188e-12  2.1717198829257630e-12  1.8875004790960749e-12  1.5785254337518802e-12  1.2614525476167883e-12  9.5653699685547085e-13  6.8366648127481990e-13  4.5777739957838205e-13  2.8562889630711762e-13  1.6530494976264957e-13  8.8392425365768335e-14  4.3528881589481863e-14  1.9687923371813603e-14  8.1603483810127401e-15  3.0938173563868316e-15  1.0712307590342443e-15  3.3830691909667452e-16  9.7346221955542103e-17  2.5503085530662245e-17  6.0844629856036042e-18  1.3277453671965953e-18  2.7207509980333293e-19  5.9863971359064344e-20  2.1234190759868670e-20  1.4867812704282538e-20  1.3918113419088189e-20  1.3789905255412007e-20  1.3774245018300702e-20  1.3772514579341762e-20  1.3772341630672747e-20  1.3772325998654976e-20  1.3772324721067169e-20  1.3772324626662447e-20  1.3772324620356016e-20  1.3772324619975188e-20  1.3772324619954397e-20  1.3772324619953365e-20  1.3772324619953313e-20  1.3772324619953310e-20  1.3772324619953313e-20  1.3772324619953313e-20  1.3772324619953313e-20  1.3772324619953313e-20  1.3772324619953310e-20  4.4616386027540607e-12  5.2876618082633553e-12  5.9865527535566227e-12  6.7699793882774070e-12  7.6240702256086320e-12  8.5477674387667606e-12  9.5365056080032156e-12  1.0582782346158012e-11  1.1675640577669853e-11  1.2800282156572236e-11  1.3937782852604262e-11  1.5064965577848221e-11  1.6154483427438748e-11  1.7175148766816428e-11  1.8092498149951385e-11  1.8869488437113643e-11  1.9467082969758614e-11  1.9844391333309411e-11  1.9958186025244865e-11  1.9762321554475246e-11  1.9208880612067193e-11  1.8254098352134572e-11  1.6871723232995312e-11  1.5072973705662704e-11  1.2926181128454141e-11  1.0564369366822877e-11  8.1706158216132707e-12  5.9408975215627912e-12  4.0372507821940294e-12  2.5511981607067274e-12  1.4926219301768136e-12  8.0562083085269302e-13  3.9992749218480632e-13  1.8214640796763628e-13  7.5954443865724794e-14  2.8949052044919349e-14  1.0070275398793517e-14  3.1933738558477614e-15  9.2217957183977865e-16  2.4230661806331971e-16  5.7891280578931515e-17  1.2574791926966497e-17  2.4890692000733104e-18  4.5644819574036976e-19  8.5583502339696123e-20  2.4334574611965221e-20  1.5180335191204391e-20  1.3942376579748156e-20  1.3790925675081650e-20  1.3774166831094939e-20  1.3772489764315846e-20  1.3772338016649465e-20  1.3772325603145527e-20  1.3772324685220208e-20  1.3772324623871443e-20  1.3772324620165999e-20  1.3772324619963756e-20  1.3772324619953774e-20  1.3772324619953325e-20  1.3772324619953316e-20  1.3772324619953313e-20  1.3772324619953316e-20  1.3772324619953316e-20  1.3772324619953319e-20  1.3772324619953313e-20  2.0013916839283906e-11  2.4015979997225627e-11  2.7794006540821167e-11  3.2097594470452729e-11  3.6902494113200567e-11  4.2229695104328954e-11  4.8085525251096692e-11  5.4462218232696943e-11  6.1334047753544077e-11  6.8653601021983353e-11  7.6348093592825887e-11  8.4316003234320182e-11  9.2424301230975798e-11  1.0050647225445314e-10  1.0836117608050217e-10  1.1575065489179062e-10  1.2239686766958652e-10  1.2797258559460261e-10  1.3208628601886873e-10  1.3426637198130369e-10  1.3396272455321063e-10  1.3059590691439274e-10  1.2368210376870573e-10  1.1303049581422528e-10  9.8952587077455905e-11  8.2373823264664579e-11  6.4745547625894900e-11  4.7740534270552347e-11  3.2836539112518120e-11  2.0965758038599669e-11  1.2375796684001385e-11  6.7308601391135805e-12  3.3634397916676105e-12  1.5406561726918937e-12  6.4565954458792986e-13  2.4716342478828037e-13  8.6311213948305020e-14  2.7463915763218173e-14  7.9552183053019730e-15  2.0959316107318967e-15  5.0191383904023850e-16  1.0918401126713836e-16  2.1570845850531210e-17  3.8761395388533067e-18  6.4139141909508781e-19  1.0622848662236874e-19  2.6114913059437806e-20  1.5264961928920464e-20  1.3935795018547283e-20  1.3788532682333163e-20  1.3773779111611556e-20  1.3772442725638347e-20  1.3772333295784976e-20  1.3772325196379081e-20  1.3772324654586198e-20  1.3772324621834703e-20  1.3772324620045713e-20  1.3772324619957415e-20  1.3772324619953479e-20  1.3772324619953322e-20  1.3772324619953319e-20  1.3772324619953322e-20  1.3772324619953322e-20  1.3772324619953322e-20  1.3772324619953316e-20  9.0390812285904084e-11  1.0874111302104221e-10  1.2773927798363930e-10  1.4967454338836562e-10  1.7465236370451432e-10  2.0292276018897184e-10  2.3469146059688338e-10  2.7011466702611445e-10  3.0927701950274322e-10  3.5216737829509954e-10  3.9865182990678310e-10  4.4844468664723200e-10  5.0107820805654616e-10  5.5587099154572938e-10  6.1189224349692206e-10  6.6791308715123498e-10  7.2232693717834356e-10  7.7301491093810786e-10  8.1714587585890159e-10  8.5095773010709833e-10  8.6967475691664318e-10  8.6782804755347674e-10  8.4024198521768068e-10  7.8370115364385617e-10  6.9883292371243832e-10  5.9130042065597669e-10  4.7140918127593757e-10  3.5188736744271182e-10  2.4459656617741262e-10  1.5758937199240459e-10  9.3746705209566561e-11  5.1327579338015063e-11  2.5796966612834930e-11  1.1875933003847343e-11  4.9988358410027821e-12  1.9209830014837640e-12  6.7311252259392132e-13  2.1483289822498177e-13  6.2397770163709529e-14  1.6479812262911792e-14  3.9550647794141950e-15  8.6201297659808185e-16  1.7053634226031948e-16  3.0616918560415523e-17  4.9942149629302385e-18  7.4847641144686804e-19  1.1197853326876807e-19  2.5662806718664326e-20  1.5075964524628144e-20  1.3901710812533239e-20  1.3783946464803975e-20  1.3773269145742714e-20  1.3772394059800940e-20  1.3772329237105549e-20  1.3772324897562648e-20  1.3772324635044455e-20  1.3772324620694938e-20  1.3772324619986265e-20  1.3772324619954647e-20  1.3772324619953371e-20  1.3772324619953325e-20  1.3772324619953322e-20  1.3772324619953322e-20  1.3772324619953322e-20  1.3772324619953322e-20  3.9155455118331088e-10  4.7120514500332201e-10  5.6054613715487957e-10  6.6497690840573541e-10  7.8597492205939944e-10  9.2543242248487073e-10  1.0852052757358046e-09  1.2670705559010846e-09  1.4726270859717354e-09  1.7031743061252422e-09  1.9595647633262669e-09  2.2420290366412607e-09  2.5499701858833842e-09  2.8817171519334827e-09  3.2342041808091885e-09  3.6024957332344968e-09  3.9790046549989745e-09  4.3522011400283074e-09  4.7047076196663316e-09  5.0111055975869602e-09  5.2366203959076643e-09  5.3387633587799859e-09  5.2740985502270848e-09  5.0105513902632804e-09  4.5420956320831539e-09  3.8991633431295005e-09  3.1478098678723001e-09  2.3752014953816173e-09  1.6663375096691225e-09  1.0821287204677307e-09  6.4812638136688341e-10  3.5694183804545213e-10  1.8030898303951313e-10  8.3374713054996478e-11  3.5230280365244156e-11  1.3584774901466958e-11  4.7745302225625188e-12  1.5279727029998942e-12  4.4487107661624328e-13  1.1775053603132655e-13  2.8315111655998411e-14  6.1822924329571469e-15  1.2249952045357992e-15  2.2018359199317551e-16  3.5893456696110391e-17  5.3132463459030433e-18  7.2294928808439409e-19  9.9727235098239903e-20  2.3205298871853352e-20  1.4709382953430586e-20  1.3856563546604469e-20  1.3779176113640900e-20  1.3772828690890643e-20  1.3772358158894962e-20  1.3772326637786354e-20  1.3772324729711167e-20  1.3772324625350242e-20  1.3772324620193191e-20  1.3772324619962964e-20  1.3772324619953678e-20  1.3772324619953338e-20  1.3772324619953322e-20  1.3772324619953322e-20  1.3772324619953322e-20  1.3772324619953322e-20  1.6115860336534470e-09  1.9388660684659266e-09  2.3327572859002520e-09  2.7983777208081428e-09  3.3462572683150224e-09  3.9879853235823454e-09  4.7358797881318830e-09  5.6028067200889474e-09  6.6018433972783647e-09  7.7458140112613417e-09  9.0466664495735572e-09  1.0514659074660224e-08  1.2157305410718854e-08  1.3977959782855211e-08  1.5973758594633881e-08  1.8132284906530597e-08  2.0425799874046468e-08  2.2801486096363322e-08  2.5166740537249920e-08  2.7371446130600315e-08  2.9194970980753143e-08  3.0352268117245664e-08  3.0534823587144222e-08  2.9491209439567397e-08  2.7128040109990414e-08  2.3587535881631993e-08  1.9253537432423938e-08  1.4666011749535123e-08  1.0372676998996154e-08  6.7829337856601216e-09  4.0868060414602641e-09  2.2623126219548531e-09  1.1479104140824157e-09  5.3286162163803820e-10  2.2593322502151681e-10  8.7383163946149977e-11  3.0794377606869649e-11  9.8786520758320780e-12  2.8823787455034023e-12  7.6440299208600550e-13  1.8413650682512664e-13  4.0268193275902460e-14  7.9904773565294255e-15  1.4380622996725988e-15  2.3464600935282029e-16  3.4707438127914742e-17  4.6611702527245096e-18  5.7757505845203658e-19  7.5698383161939036e-20  1.9928772025582821e-20  1.4326170335799466e-20  1.3817401146983744e-20  1.3775642998024307e-20  1.3772545540123595e-20  1.3772337918640822e-20  1.3772325343697856e-20  1.3772324655558510e-20  1.3772324621536581e-20  1.3772324620016959e-20  1.3772324619955640e-20  1.3772324619953401e-20  1.3772324619953328e-20  1.3772324619953328e-20  1.3772324619953331e-20  1.3772324619953328e-20  6.2903542576037602e-09  7.5631163010407507e-09  9.1934983019266592e-09  1.1140394074775606e-08  1.3462844783522138e-08  1.6222291504544050e-08  1.9487306094219742e-08  2.3333196965609944e-08  2.7841395003023869e-08  3.3098288881131313e-08  3.9193343265789945e-08  4.6216265553666233e-08  5.4252818443743519e-08  6.3378416288140968e-08  7.3647517719962236e-08  8.5074546249513281e-08  9.7598594333908166e-08  1.1102129589275843e-07  1.2491031548535965e-07  1.3847818551637401e-07  1.5048226982795505e-07  1.5923439357291565e-07  1.6282153822076423e-07  1.5957709129596031e-07  1.4869822507044902e-07  1.3075039328925984e-07  1.0776149380985965e-07  8.2766447156502368e-08  5.8952491581380391e-08  3.8784456044309933e-08  2.3490082038313957e-08  1.3061913387367096e-08  6.6536635257233482e-09  3.0992276664588440e-09  1.3180368966339936e-09  5.1113310274619851e-10  1.8055501026313755e-10  5.8044245836790379e-11  1.6968455901610654e-11  4.5077728998081243e-12  1.0875680629159570e-12  2.3817285927032512e-13  4.7321624775677782e-14  8.5264548390031956e-15  1.3926671252893695e-15  2.0613625654759720e-16  2.7649282228740341e-17  3.3690881136303414e-18  3.8257810677841595e-19  5.0462105363989645e-20  1.7075031637983370e-20  1.4041277770989488e-20  1.3792134351537710e-20  1.3773644088928807e-20  1.3772404084092112e-20  1.3772328946453440e-20  1.3772324832888335e-20  1.3772324629425780e-20  1.3772324620334172e-20  1.3772324619967162e-20  1.3772324619953780e-20  1.3772324619953341e-20  1.3772324619953331e-20  1.3772324619953331e-20  1.3772324619953328e-20  2.3272934674355935e-08  2.7956474726356714e-08  3.4297960320675875e-08  4.1938865970751720e-08  5.1164498446697854e-08  6.2265029472396384e-08  7.5575524330361281e-08  9.1476866993689710e-08  1.1039773738797082e-07  1.3281485645366682e-07  1.5925081501394999e-07  1.9026825934706345e-07  2.2645815767260434e-07  2.6841711035297649e-07  3.1670204086512098e-07  3.7173722808431929e-07  4.3362797806095183e-07  5.0181688338901349e-07  5.7453206837013109e-07  6.4806921644002538e-07  7.1614921479648501e-07  7.6983953405102015e-07  7.9862054440737081e-07  7.9286415969016167e-07  7.4721394698142817e-07  6.6348588996432630e-07  5.5144154091074491e-07  4.2658841579058379e-07  3.0572005728055839e-07  2.0219303201321123e-07  1.2301624918419666e-07  6.8673715093391969e-08  3.5101943018684379e-08  1.6399383612430639e-08  6.9928137862564962e-09  2.7181861096052545e-09  9.6219952653251142e-10  3.0990622667668606e-10  9.0750003131177370e-11  2.4145010993087485e-11  5.8333641829492373e-12  1.2790728747439017e-12  2.5442036671701321e-13  4.5888446982496549e-14  7.5020583678019114e-15  1.1112976142379763e-15  1.4911986715895302e-16  1.8129594147631044e-17  2.0062366849447900e-18  2.1209874680898476e-19  3.1634134472355065e-20  1.5227556643799372e-20  1.3879554930570460e-20  1.3779469709111430e-20  1.3772755085360583e-20  1.3772348065183687e-20  1.3772325774231954e-20  1.3772324671318614e-20  1.3772324622019198e-20  1.3772324620028416e-20  1.3772324619955799e-20  1.3772324619953401e-20  1.3772324619953338e-20  1.3772324619953328e-20  1.3772324619953328e-20  8.1605548819487367e-08  9.7910514768829816e-08  1.2110507949018677e-07  1.4927122680323357e-07  1.8363924881385585e-07  2.2544842097286198e-07  2.7616680283272662e-07  3.3750668422516370e-07  4.1145188388411859e-07  5.0028210239069498e-07  6.0659227123749360e-07  7.3330189635708625e-07  8.8364397940934135e-07  1.0611087489861004e-06  1.2692829904416379e-06  1.5114558849723601e-06  1.7897526370783571e-06  2.1034536954636494e-06  2.4462069056523271e-06  2.8022834746506753e-06  3.1430256436217838e-06  3.4259026718152202e-06  3.5991524553713725e-06  3.6135500398713404e-06  3.4390473027662208e-06  3.0796324527998114e-06  2.5781925680112548e-06  2.0068589569389517e-06  1.4458904951701087e-06  9.6062932776400756e-07  5.8675846999366012e-07  3.2867718572848874e-07  1.6850196669629204e-07  7.8929530933984620e-08  3.3734191716233340e-08  1.3139897861371373e-08  4.6598992321663278e-09  1.5033403095756731e-09  4.4087625353057919e-10  1.1745633126309667e-10  2.8411222249808758e-11  6.2364363659012188e-12  1.2417004989467585e-12  2.2415559941584624e-13  3.6674875776799307e-14  5.4365314231269655e-15  7.2991757455664901e-16  8.8744297228038185e-17  9.7776766353688332e-18  9.8608831984442707e-19  1.0137653769489260e-19  2.0912125502829489e-20  1.4298596693666631e-20  1.3807401978743452e-20  1.3774438471891809e-20  1.3772439779926303e-20  1.3772330291025587e-20  1.3772324872377834e-20  1.3772324630108209e-20  1.3772324620322541e-20  1.3772324619965462e-20  1.3772324619953687e-20  1.3772324619953341e-20  1.3772324619953328e-20  1.3772324619953328e-20  2.7118976757804306e-07  3.2488431460240863e-07  4.0470745754194350e-07  5.0228033851255401e-07  6.2241832065417342e-07  7.6995013674817277e-07  9.5071130210648441e-07  1.1716453565436504e-06  1.4409767094913161e-06  1.7683908333262409e-06  2.1652185653179198e-06  2.6446083827934913e-06  3.2216465447306016e-06  3.9133195733953518e-06  4.7380546051010239e-06  5.7142474464230631e-06  6.8566689174056590e-06  8.1691248941059428e-06  9.6318932725564941e-06  1.1184379516625168e-05  1.2707905651328205e-05  1.4019407369781079e-05  1.4889714275134496e-05  1.5094138120818232e-05  1.4486350938190358e-05  1.3066549917092552e-05  1.1006979759250035e-05  8.6133377627646570e-06  6.2339412739520920e-06  4.1579625954311980e-06  2.5483119292307680e-06  1.4316633667357130e-06  7.3586084299336070e-07  3.4547481213708982e-07  1.4795192995668608e-07  5.7732389160561976e-08  2.0506814752002124e-08  6.6252248180032703e-09  1.9454392122219393e-09  5.1889315271990978e-10  1.2564364973755135e-10  2.7605111549465001e-11  5.5008461303207021e-12  9.9376237194115835e-13  1.6269927279449903e-13  2.4131752253716701e-14  3.2415692526921461e-15  3.9424665587468232e-16  4.3411785577327852e-17  4.3368950449884699e-18  4.0339027535838254e-19  4.5534247833427894e-20  1.6113983336687719e-20  1.3928431357428012e-20  1.3781733606203443e-20  1.3772837290657121e-20  1.3772349870403757e-20  1.3772325744050661e-20  1.3772324665182665e-20  1.3772324621598091e-20  1.3772324620007384e-20  1.3772324619954932e-20  1.3772324619953374e-20  1.3772324619953328e-20  1.3772324619953322e-20  8.5416811364403003e-07  1.0214241881709757e-06  1.2800347721132936e-06  1.5978414182803987e-06  1.9921163450996105e-06  2.4801217381066144e-06  3.0830525772012364e-06  3.8265266573252100e-06  4.7414139456644492e-06  5.8647600625036021e-06  7.2408130040308425e-06  8.9221138192562867e-06  1.0970519087486042e-05  1.3457758577504578e-05  1.6464476881851381e-05  2.0075349746309550e-05  2.4365666921432997e-05  2.9372501672803284e-05  3.5043909848481465e-05  4.1167100780988759e-05  4.7294623951641654e-05  5.2711932691666864e-05  5.6502784696499343e-05  5.7746557216374427e-05  5.5814730505839167e-05  5.0651889254312303e-05  4.2891359704750022e-05  3.3714385688276472e-05  2.4494835897700300e-05  1.6391982847874965e-05  1.0075161089807645e-05  5.6745314661732971e-06  2.9230854126976270e-06  1.3750128169328567e-06  5.8987501241005357e-07  2.3052903403375871e-07  8.1997261204264242e-08  2.6523666010493530e-08  7.7969711451975814e-09  2.0816636853019282e-09  5.0448826939434449e-10  1.1092648144079952e-10  2.2119278034586092e-11  3.9983708438191689e-12  6.5495451174858763e-13  9.7186884219677788e-14  1.3059818932434124e-14  1.5888297131277709e-15  1.7495970698879037e-16  1.74448091012