<?xml version="1.0"?>
<VTKFile type="UnstructuredGrid"  version="0.1"  >
<UnstructuredGrid>
<Piece  NumberOfPoints="4225" NumberOfCells="8192">
<Points>
<DataArray  type="Float64"  NumberOfComponents="3"  format="ascii">0 0 0  0.015625 0 0  0.03125 0 0  0.046875 0 0  0.0625 0 0  0.078125 0 0  0.09375 0 0  0.109375 0 0  0.125 0 0  0.140625 0 0  0.15625 0 0  0.171875 0 0  0.1875 0 0  0.203125 0 0  0.21875 0 0  0.234375 0 0  0.25 0 0  0.265625 0 0  0.28125 0 0  0.296875 0 0  0.3125 0 0  0.328125 0 0  0.34375 0 0  0.359375 0 0  0.375 0 0  0.390625 0 0  0.40625 0 0  0.421875 0 0  0.4375 0 0  0.453125 0 0  0.46875 0 0  0.484375 0 0  0.5 0 0  0.515625 0 0  0.53125 0 0  0.546875 0 0  0.5625 0 0  0.578125 0 0  0.59375 0 0  0.609375 0 0  0.625 0 0  0.640625 0 0  0.65625 0 0  0.671875 0 0  0.6875 0 0  0.703125 0 0  0.71875 0 0  0.734375 0 0  0.75 0 0  0.765625 0 0  0.78125 0 0  0.796875 0 0  0.8125 0 0  0.828125 0 0  0.84375 0 0  0.859375 0 0  0.875 0 0  0.890625 0 0  0.90625 0 0  0.921875 0 0  0.9375 0 0  0.953125 0 0  0.96875 0 0  0.984375 0 0  1 0 0  0 0.015625 0  0.015625 0.015625 0  0.03125 0.015625 0  0.046875 0.015625 0  0.0625 0.015625 0  0.078125 0.015625 0  0.09375 0.015625 0  0.109375 0.015625 0  0.125 0.015625 0  0.140625 0.015625 0  0.15625 0.015625 0  0.171875 0.015625 0  0.1875 0.015625 0  0.203125 0.015625 0  0.21875 0.015625 0  0.234375 0.015625 0  0.25 0.015625 0  0.265625 0.015625 0  0.28125 0.015625 0  0.296875 0.015625 0  0.3125 0.015625 0  0.328125 0.015625 0  0.34375 0.015625 0  0.359375 0.015625 0  0.375 0.015625 0  0.390625 0.015625 0  0.40625 0.015625 0  0.421875 0.015625 0  0.4375 0.015625 0  0.453125 0.015625 0  0.46875 0.015625 0  0.484375 0.015625 0  0.5 0.015625 0  0.515625 0.015625 0  0.53125 0.015625 0  0.546875 0.015625 0  0.5625 0.015625 0  0.578125 0.015625 0  0.59375 0.015625 0  0.609375 0.015625 0  0.625 0.015625 0  0.640625 0.015625 0  0.65625 0.015625 0  0.671875 0.015625 0  0.6875 0.015625 0  0.703125 0.015625 0  0.71875 0.015625 0  0.734375 0.015625 0  0.75 0.015625 0  0.765625 0.015625 0  0.78125 0.015625 0  0.796875 0.015625 0  0.8125 0.015625 0  0.828125 0.015625 0  0.84375 0.015625 0  0.859375 0.015625 0  0.875 0.015625 0  0.890625 0.015625 0  0.90625 0.015625 0  0.921875 0.015625 0  0.9375 0.015625 0  0.953125 0.015625 0  0.96875 0.015625 0  0.984375 0.015625 0  1 0.015625 0  0 0.03125 0  0.015625 0.03125 0  0.03125 0.03125 0  0.046875 0.03125 0  0.0625 0.03125 0  0.078125 0.03125 0  0.09375 0.03125 0  0.109375 0.03125 0  0.125 0.03125 0  0.140625 0.03125 0  0.15625 0.03125 0  0.171875 0.03125 0  0.1875 0.03125 0  0.203125 0.03125 0  0.21875 0.03125 0  0.234375 0.03125 0  0.25 0.03125 0  0.265625 0.03125 0  0.28125 0.03125 0  0.296875 0.03125 0  0.3125 0.03125 0  0.328125 0.03125 0  0.34375 0.03125 0  0.359375 0.03125 0  0.375 0.03125 0  0.390625 0.03125 0  0.40625 0.03125 0  0.421875 0.03125 0  0.4375 0.03125 0  0.453125 0.03125 0  0.46875 0.03125 0  0.484375 0.03125 0  0.5 0.03125 0  0.515625 0.03125 0  0.53125 0.03125 0  0.546875 0.03125 0  0.5625 0.03125 0  0.578125 0.03125 0  0.59375 0.03125 0  0.609375 0.03125 0  0.625 0.03125 0  0.640625 0.03125 0  0.65625 0.03125 0  0.671875 0.03125 0  0.6875 0.03125 0  0.703125 0.03125 0  0.71875 0.03125 0  0.734375 0.03125 0  0.75 0.03125 0  0.765625 0.03125 0  0.78125 0.03125 0  0.796875 0.03125 0  0.8125 0.03125 0  0.828125 0.03125 0  0.84375 0.03125 0  0.859375 0.03125 0  0.875 0.03125 0  0.890625 0.03125 0  0.90625 0.03125 0  0.921875 0.03125 0  0.9375 0.03125 0  0.953125 0.03125 0  0.96875 0.03125 0  0.984375 0.03125 0  1 0.03125 0  0 0.046875 0  0.015625 0.046875 0  0.03125 0.046875 0  0.046875 0.046875 0  0.0625 0.046875 0  0.078125 0.046875 0  0.09375 0.046875 0  0.109375 0.046875 0  0.125 0.046875 0  0.140625 0.046875 0  0.15625 0.046875 0  0.171875 0.046875 0  0.1875 0.046875 0  0.203125 0.046875 0  0.21875 0.046875 0  0.234375 0.046875 0  0.25 0.046875 0  0.265625 0.046875 0  0.28125 0.046875 0  0.296875 0.046875 0  0.3125 0.046875 0  0.328125 0.046875 0  0.34375 0.046875 0  0.359375 0.046875 0  0.375 0.046875 0  0.390625 0.046875 0  0.40625 0.046875 0  0.421875 0.046875 0  0.4375 0.046875 0  0.453125 0.046875 0  0.46875 0.046875 0  0.484375 0.046875 0  0.5 0.046875 0  0.515625 0.046875 0  0.53125 0.046875 0  0.546875 0.046875 0  0.5625 0.046875 0  0.578125 0.046875 0  0.59375 0.046875 0  0.609375 0.046875 0  0.625 0.046875 0  0.640625 0.046875 0  0.65625 0.046875 0  0.671875 0.046875 0  0.6875 0.046875 0  0.703125 0.046875 0  0.71875 0.046875 0  0.734375 0.046875 0  0.75 0.046875 0  0.765625 0.046875 0  0.78125 0.046875 0  0.796875 0.046875 0  0.8125 0.046875 0  0.828125 0.046875 0  0.84375 0.046875 0  0.859375 0.046875 0  0.875 0.046875 0  0.890625 0.046875 0  0.90625 0.046875 0  0.921875 0.046875 0  0.9375 0.046875 0  0.953125 0.046875 0  0.96875 0.046875 0  0.984375 0.046875 0  1 0.046875 0  0 0.0625 0  0.015625 0.0625 0  0.03125 0.0625 0  0.046875 0.0625 0  0.0625 0.0625 0  0.078125 0.0625 0  0.09375 0.0625 0  0.109375 0.0625 0  0.125 0.0625 0  0.140625 0.0625 0  0.15625 0.0625 0  0.171875 0.0625 0  0.1875 0.0625 0  0.203125 0.0625 0  0.21875 0.0625 0  0.234375 0.0625 0  0.25 0.0625 0  0.265625 0.0625 0  0.28125 0.0625 0  0.296875 0.0625 0  0.3125 0.0625 0  0.328125 0.0625 0  0.34375 0.0625 0  0.359375 0.0625 0  0.375 0.0625 0  0.390625 0.0625 0  0.40625 0.0625 0  0.421875 0.0625 0  0.4375 0.0625 0  0.453125 0.0625 0  0.46875 0.0625 0  0.484375 0.0625 0  0.5 0.0625 0  0.515625 0.0625 0  0.53125 0.0625 0  0.546875 0.0625 0  0.5625 0.0625 0  0.578125 0.0625 0  0.59375 0.0625 0  0.609375 0.0625 0  0.625 0.0625 0  0.640625 0.0625 0  0.65625 0.0625 0  0.671875 0.0625 0  0.6875 0.0625 0  0.703125 0.0625 0  0.71875 0.0625 0  0.734375 0.0625 0  0.75 0.0625 0  0.765625 0.0625 0  0.78125 0.0625 0  0.796875 0.0625 0  0.8125 0.0625 0  0.828125 0.0625 0  0.84375 0.0625 0  0.859375 0.0625 0  0.875 0.0625 0  0.890625 0.0625 0  0.90625 0.0625 0  0.921875 0.0625 0  0.9375 0.0625 0  0.953125 0.0625 0  0.96875 0.0625 0  0.984375 0.0625 0  1 0.0625 0  0 0.078125 0  0.015625 0.078125 0  0.03125 0.078125 0  0.046875 0.078125 0  0.0625 0.078125 0  0.078125 0.078125 0  0.09375 0.078125 0  0.109375 0.078125 0  0.125 0.078125 0  0.140625 0.078125 0  0.15625 0.078125 0  0.171875 0.078125 0  0.1875 0.078125 0  0.203125 0.078125 0  0.21875 0.078125 0  0.234375 0.078125 0  0.25 0.078125 0  0.265625 0.078125 0  0.28125 0.078125 0  0.296875 0.078125 0  0.3125 0.078125 0  0.328125 0.078125 0  0.34375 0.078125 0  0.359375 0.078125 0  0.375 0.078125 0  0.390625 0.078125 0  0.40625 0.078125 0  0.421875 0.078125 0  0.4375 0.078125 0  0.453125 0.078125 0  0.46875 0.078125 0  0.484375 0.078125 0  0.5 0.078125 0  0.515625 0.078125 0  0.53125 0.078125 0  0.546875 0.078125 0  0.5625 0.078125 0  0.578125 0.078125 0  0.59375 0.078125 0  0.609375 0.078125 0  0.625 0.078125 0  0.640625 0.078125 0  0.65625 0.078125 0  0.671875 0.078125 0  0.6875 0.078125 0  0.703125 0.078125 0  0.71875 0.078125 0  0.734375 0.078125 0  0.75 0.078125 0  0.765625 0.078125 0  0.78125 0.078125 0  0.796875 0.078125 0  0.8125 0.078125 0  0.828125 0.078125 0  0.84375 0.078125 0  0.859375 0.078125 0  0.875 0.078125 0  0.890625 0.078125 0  0.90625 0.078125 0  0.921875 0.078125 0  0.9375 0.078125 0  0.953125 0.078125 0  0.96875 0.078125 0  0.984375 0.078125 0  1 0.078125 0  0 0.09375 0  0.015625 0.09375 0  0.03125 0.09375 0  0.046875 0.09375 0  0.0625 0.09375 0  0.078125 0.09375 0  0.09375 0.09375 0  0.109375 0.09375 0  0.125 0.09375 0  0.140625 0.09375 0  0.15625 0.09375 0  0.171875 0.09375 0  0.1875 0.09375 0  0.203125 0.09375 0  0.21875 0.09375 0  0.234375 0.09375 0  0.25 0.09375 0  0.265625 0.09375 0  0.28125 0.09375 0  0.296875 0.09375 0  0.3125 0.09375 0  0.328125 0.09375 0  0.34375 0.09375 0  0.359375 0.09375 0  0.375 0.09375 0  0.390625 0.09375 0  0.40625 0.09375 0  0.421875 0.09375 0  0.4375 0.09375 0  0.453125 0.09375 0  0.46875 0.09375 0  0.484375 0.09375 0  0.5 0.09375 0  0.515625 0.09375 0  0.53125 0.09375 0  0.546875 0.09375 0  0.5625 0.09375 0  0.578125 0.09375 0  0.59375 0.09375 0  0.609375 0.09375 0  0.625 0.09375 0  0.640625 0.09375 0  0.65625 0.09375 0  0.671875 0.09375 0  0.6875 0.09375 0  0.703125 0.09375 0  0.71875 0.09375 0  0.734375 0.09375 0  0.75 0.09375 0  0.765625 0.09375 0  0.78125 0.09375 0  0.796875 0.09375 0  0.8125 0.09375 0  0.828125 0.09375 0  0.84375 0.09375 0  0.859375 0.09375 0  0.875 0.09375 0  0.890625 0.09375 0  0.90625 0.09375 0  0.921875 0.09375 0  0.9375 0.09375 0  0.953125 0.09375 0  0.96875 0.09375 0  0.984375 0.09375 0  1 0.09375 0  0 0.109375 0  0.015625 0.109375 0  0.03125 0.109375 0  0.046875 0.109375 0  0.0625 0.109375 0  0.078125 0.109375 0  0.09375 0.109375 0  0.109375 0.109375 0  0.125 0.109375 0  0.140625 0.109375 0  0.15625 0.109375 0  0.171875 0.109375 0  0.1875 0.109375 0  0.203125 0.109375 0  0.21875 0.109375 0  0.234375 0.109375 0  0.25 0.109375 0  0.265625 0.109375 0  0.28125 0.109375 0  0.296875 0.109375 0  0.3125 0.109375 0  0.328125 0.109375 0  0.34375 0.109375 0  0.359375 0.109375 0  0.375 0.109375 0  0.390625 0.109375 0  0.40625 0.109375 0  0.421875 0.109375 0  0.4375 0.109375 0  0.453125 0.109375 0  0.46875 0.109375 0  0.484375 0.109375 0  0.5 0.109375 0  0.515625 0.109375 0  0.53125 0.109375 0  0.546875 0.109375 0  0.5625 0.109375 0  0.578125 0.109375 0  0.59375 0.109375 0  0.609375 0.109375 0  0.625 0.109375 0  0.640625 0.109375 0  0.65625 0.109375 0  0.671875 0.109375 0  0.6875 0.109375 0  0.703125 0.109375 0  0.71875 0.109375 0  0.734375 0.109375 0  0.75 0.109375 0  0.765625 0.109375 0  0.78125 0.109375 0  0.796875 0.109375 0  0.8125 0.109375 0  0.828125 0.109375 0  0.84375 0.109375 0  0.859375 0.109375 0  0.875 0.109375 0  0.890625 0.109375 0  0.90625 0.109375 0  0.921875 0.109375 0  0.9375 0.109375 0  0.953125 0.109375 0  0.96875 0.109375 0  0.984375 0.109375 0  1 0.109375 0  0 0.125 0  0.015625 0.125 0  0.03125 0.125 0  0.046875 0.125 0  0.0625 0.125 0  0.078125 0.125 0  0.09375 0.125 0  0.109375 0.125 0  0.125 0.12
[...]
<PointData  Scalars="f_14444"> 
<DataArray  type="Float64"  Name="f_14444"  format="ascii">5.0039544594386897e-20  5.1632014682481565e-20  5.3007898791673146e-20  5.4397470316847272e-20  5.6038864699159068e-20  5.6939365540844334e-20  5.5195193537661873e-20  6.1127460666586329e-20  9.4511383609484417e-20  7.0439316112407920e-20  -2.0559926801078632e-19  -1.8610648072331097e-19  1.8682003565025632e-18  3.7537473172035928e-18  -6.5984183714397532e-18  -2.6392343534962254e-17  1.7242368023818722e-17  2.0965684223389201e-16  3.5579144166007317e-16  -7.9812895057695998e-17  -8.0092666286506746e-16  1.3203837695041675e-15  1.1378374025557789e-14  2.9082073423940161e-14  4.0671449578105149e-14  2.9550029060653053e-14  2.3855667539410430e-14  1.6689737646472086e-13  7.4622790567060456e-13  2.0988103138424134e-12  4.3844045014685929e-12  7.4190054431896408e-12  1.1061635427571380e-11  1.6976446702943861e-11  3.2850190336357145e-11  8.0246199475656528e-11  2.0717026637586343e-10  5.0610764263361202e-10  1.1378022842177747e-09  2.3604565656090728e-09  4.5634116774586506e-09  8.3038030192900565e-09  1.4344234918863685e-08  2.3689228055669511e-08  3.7618084833794464e-08  5.7711883450110271e-08  8.5872572041682107e-08  1.2433241465339023e-07  1.7565283323988385e-07  2.4271111926958848e-07  3.2867756149133813e-07  4.3697535703775446e-07  5.7124658131346955e-07  7.3526787593843840e-07  9.3295074083940683e-07  1.1681652779327046e-06  1.4447666696066245e-06  1.7667810651676350e-06  2.1364183183232343e-06  2.5614714429907502e-06  3.0320625218686412e-06  3.5833210636701868e-06  4.1396442865465947e-06  4.8972664209656238e-06  5.4964691613382974e-06  5.7805800955391438e-20  5.8907070171792590e-20  6.0238217433306504e-20  6.1743354190210252e-20  6.3259935808747104e-20  6.3940620541662143e-20  6.5390460758415072e-20  7.6828257425616168e-20  8.3927644967883833e-20  -6.2369022626468269e-22  -7.3306222729971472e-20  6.9243529023823458e-19  2.3594833137482705e-18  4.5550949176112591e-19  -4.8514229838038503e-18  2.8129231134701160e-17  1.8648982487385306e-16  4.7082083277236189e-16  7.4983894099550022e-16  1.5449479250697359e-15  5.7505681351292724e-15  1.8953559441390892e-14  4.5402656707165936e-14  8.3868138461918798e-14  1.4028603060875070e-13  2.7513682546381599e-13  6.7613706336495133e-13  1.7039357259023321e-12  3.8543518715397822e-12  7.6828558391948598e-12  1.3976551744423263e-11  2.4798722983597730e-11  4.6375142311668723e-11  9.5025345785320196e-11  2.0737658684102624e-10  4.5589542859006466e-10  9.7034963856540837e-10  1.9652321059029057e-09  3.7725233645078616e-09  6.8785286177112333e-09  1.1962976689284760e-08  1.9938169645664563e-08  3.1985756564228685e-08  4.9588682689026177e-08  7.4556027031876233e-08  1.0903875564154756e-07  1.5553487231934811e-07  2.1688290896177386e-07  2.9624347320233686e-07  3.9706836831247056e-07  5.2305986406272132e-07  6.7811515187856854e-07  8.6627520677728584e-07  1.0916315996947727e-06  1.3583132435101456e-06  1.6702904787483514e-06  2.0314793325215444e-06  2.4456070151210851e-06  2.9151990021696637e-06  3.4464436055547382e-06  4.0317198762939386e-06  4.7006047903101396e-06  5.3869625012000502e-06  6.2520605542087357e-06  6.8854523477120841e-06  8.1777540460872985e-20  8.3590278038110475e-20  8.5531756784259867e-20  8.7600973030294648e-20  8.9351441406462953e-20  9.1099178671802819e-20  9.8419685369340054e-20  1.0857828593949558e-19  6.6295945113638757e-20  1.4553852121998708e-20  6.5780564546596911e-19  2.8505501114671181e-18  5.1776655761111973e-18  1.4544070118933550e-17  9.8376808326127339e-17  4.4783010937780509e-16  1.3693203436801169e-15  3.5191490778374705e-15  9.5452628150821120e-15  2.7821873669679436e-14  7.5727242232331339e-14  1.7917855285771845e-13  3.7768411147275317e-13  7.6746024840449753e-13  1.6181423541454398e-12  3.5508173152177428e-12  7.7029062878824218e-12  1.5857495286565607e-11  3.0824212785439862e-11  5.7950281276595469e-11  1.0935245036062129e-10  2.1300879643695276e-10  4.2896966609322286e-10  8.7451538656281178e-10  1.7591560701241011e-09  3.4291197737938054e-09  6.4196492972045717e-09  1.1512250484372614e-08  1.9793172502120019e-08  3.2708943592998188e-08  5.2114752136850925e-08  8.0311813178302389e-08  1.2007051803492506e-07  1.7463703331673028e-07  2.4772199828233079e-07  3.4347096949352990e-07  4.6641722826026127e-07  6.2141834190480158e-07  8.1357880636553158e-07  1.0481607187369248e-06  1.3304879088995348e-06  1.6658387495058998e-06  2.0593553962407138e-06  2.5159014681233570e-06  3.0400616526529537e-06  3.6358204878576800e-06  4.3069189765918469e-06  5.0561838509392202e-06  5.8853496787858164e-06  6.7996142293827631e-06  7.7862200623386093e-06  8.8863388466743412e-06  9.9908321816201017e-06  1.1358104593408670e-05  1.2379344998164549e-05  1.3407648686529020e-19  1.3739460408593097e-19  1.4082151440626414e-19  1.4419949396340447e-19  1.4740247672980906e-19  1.5317998878595524e-19  1.6442434424969410e-19  1.5608279483274257e-19  1.4931140935449735e-19  7.6825669272498183e-19  3.9393521888106671e-18  1.3937515756782310e-17  5.5996410998778989e-17  2.6922790136048990e-16  1.1421642337100515e-15  4.0010948412385562e-15  1.2491036341284589e-14  3.7449881624404040e-14  1.0844817304435514e-13  2.9261948475223498e-13  7.2133010882936986e-13  1.6462283418382121e-12  3.5915989955302007e-12  7.6929178211431119e-12  1.6257218348120522e-11  3.3523428262476867e-11  6.6817089076514803e-11  1.2909389227623181e-10  2.4525806849973040e-10  4.6615312524659345e-10  8.9499746385921101e-10  1.7306621349683419e-09  3.3304184386986983e-09  6.2919776380124676e-09  1.1551457933145543e-08  2.0491026800857124e-08  3.5047895136329080e-08  5.7815352498383312e-08  9.2126663741271801e-08  1.4211375315385869e-07  2.1273443491257216e-07  3.0976422029170015e-07  4.3975116373372687e-07  6.0993456243430639e-07  8.2813041610382725e-07  1.1025882566360301e-06  1.4418252323624642e-06  1.8544440498831754e-06  2.3489420086524542e-06  2.9335172164387103e-06  3.6158816541025436e-06  4.4030764026249731e-06  5.3013284251610460e-06  6.3158484558114947e-06  7.4508710154944458e-06  8.7091554973111425e-06  1.0092809080015410e-05  1.1601620034085660e-05  1.3234840763121617e-05  1.4993535680455206e-05  1.6857107979523877e-05  1.8880527094753107e-05  2.0884854305977704e-05  2.3303970838370132e-05  2.5101357263095093e-05  2.3750365562055470e-19  2.4353513690682161e-19  2.4966991844075764e-19  2.5577493862189066e-19  2.6292108572617200e-19  2.7471859051736419e-19  2.8790496771893800e-19  3.4298873135171967e-19  1.0664337236079917e-18  5.5909989248225451e-18  2.6666165400222766e-17  1.2701930810030586e-16  6.0858882479247802e-16  2.6615935085348507e-15  1.0285090798116954e-14  3.6007062819310029e-14  1.1734061004560289e-13  3.5740068902535580e-13  1.0083321285095345e-12  2.6258243924361930e-12  6.3640876418472058e-12  1.4571273841950077e-11  3.1932418948239503e-11  6.7415420465006461e-11  1.3735612693643391e-10  2.7072555091818173e-10  5.1957491636980217e-10  9.8075217156670996e-10  1.8379581576342556e-09  3.4341682023674507e-09  6.3820665671892997e-09  1.1714536516777888e-08  2.1069855728655857e-08  3.6899035574532356e-08  6.2677382211905854e-08  1.0309976851893537e-07  1.6423943008682579e-07  2.5365290273305211e-07  3.8041826368411941e-07  5.5509930668437415e-07  7.8963393220551781e-07  1.0971502832905243e-06  1.4917186019389016e-06  1.9880501881892117e-06  2.6011571287035609e-06  3.3459876430143796e-06  4.2370521058589057e-06  5.2880540762710617e-06  6.5115396824441222e-06  7.9185756301307139e-06  9.5184688927382619e-06  1.1318521351693049e-05  1.3323870442340987e-05  1.5537270265573817e-05  1.7959258818298491e-05  2.0587464315543541e-05  2.3418251078328137e-05  2.6443331921867837e-05  2.9655668636036570e-05  3.3045089690334417e-05  3.6580885424509474e-05  4.0327307006805437e-05  4.4008525949921679e-05  4.8328842764357421e-05  5.1490769494301621e-05  4.3409132374606507e-19  4.4494842797103865e-19  4.5599374180702332e-19  4.6759472454202992e-19  4.8240979680394131e-19  5.0774475109420171e-19  6.1135482480288660e-19  1.4775546566914216e-18  7.4270685536018416e-18  4.1246517896430674e-17  2.2187328063365890e-16  1.1343562357016565e-15  5.3105524820321836e-15  2.2433711059181112e-14  8.6251644806918644e-14  3.0512828543262837e-13  9.9625331087354462e-13  2.9980387171316905e-12  8.3228868537021560e-12  2.1433180415988637e-11  5.1627937182304751e-11  1.1727236956860994e-10  2.5283633671765955e-10  5.2028531628375152e-10  1.0283942791940662e-09  1.9681969788278653e-09  3.6794868332468558e-09  6.7686938891209761e-09  1.2297909646600141e-08  2.2055691183015179e-08  3.8904173197511455e-08  6.7178958996450038e-08  1.1310373799407935e-07  1.8517409072250854e-07  2.9446530201780714e-07  4.5482598217568606e-07  6.8293066805403353e-07  9.9817794144769583e-07  1.4224338898826074e-06  1.9796324440503303e-06  2.6952533696848350e-06  3.5957051133095799e-06  4.7076433335451089e-06  6.0572570728880028e-06  7.6695535559522179e-06  9.5676700030555590e-06  1.1772237120522502e-05  1.4300814378142156e-05  1.7167412740154009e-05  2.0382114195671144e-05  2.3950798632849000e-05  2.7874962619360224e-05  3.2151688491965199e-05  3.6773556622858864e-05  4.1729130894959307e-05  4.7002120456389236e-05  5.2574393288489668e-05  5.8419816973506320e-05  6.4517806723948784e-05  7.0833893436549438e-05  7.7326387235599040e-05  8.4051942034160394e-05  9.0618589338383804e-05  9.8105771216789808e-05  1.0349751783667977e-04  8.0035729413692207e-19  8.1981530953586526e-19  8.3986924715303358e-19  8.6216391371314558e-19  8.9632558081193907e-19  1.0215078979458848e-18  1.9452858432408110e-18  8.7447934122361543e-18  5.2794674399675347e-17  3.1424287013222525e-16  1.7463375218649498e-15  8.8760470858128455e-15  4.0961746631642774e-14  1.7217921996765107e-13  6.6247636812140215e-13  2.3384024385057010e-12  7.5777736168348675e-12  2.2585124641917881e-11  6.2150320386449764e-11  1.5874221334294398e-10  3.7846117880428425e-10  8.4699167750624745e-10  1.7900967175366501e-09  3.5978561596871653e-09  6.9323869607803121e-09  1.2913598103089771e-08  2.3427714996748282e-08  4.1596502107114263e-08  7.2415458396809297e-08  1.2352428867745925e-07  2.0602992003137741e-07  3.3527714366656991e-07  5.3146069388539533e-07  8.1999131064861412e-07  1.2315585653436196e-06  1.8018669493072495e-06  2.5710533777313384e-06  3.5828205289114805e-06  4.8833396022556199e-06  6.5199876720891905e-06  8.5399893825416287e-06  1.0989031480138830e-05  1.3909913090487967e-05  1.7341286150182619e-05  2.1316530246203977e-05  2.5862795284498843e-05  3.1000234698023577e-05  3.6741441737388292e-05  4.3091092726003529e-05  5.0045791715961595e-05  5.7594111275768315e-05  6.5716792985046882e-05  7.4387164377742230e-05  8.3571484695123572e-05  9.3230074902991700e-05  1.0331647131197312e-04  1.1378255312568351e-04  1.2456814276517512e-04  1.3562753231980768e-04  1.4688105326905696e-04  1.5827987465955341e-04  1.6983389506937619e-04  1.8104651129293266e-04  1.9344919607553187e-04  2.0225304744254125e-04  1.4742014366811656e-18  1.5090554973604097e-18  1.5458218670767398e-18  1.5923087118734646e-18  1.7183399973011503e-18  2.5560070162939198e-18  9.1100848662366898e-18  5.6293735249403051e-17  3.6586025603591587e-16  2.2217624256551324e-15  1.2331418217917841e-14  6.2241821706036482e-14  2.8602802749174509e-13  1.1997085674307494e-12  4.6003676919843117e-12  1.6145665641579577e-11  5.1954058369008440e-11  1.5370461204731555e-10  4.1958241020892105e-10  1.0611604141111533e-09  2.4977063142348992e-09  5.5000282997792325e-09  1.1401127655656007e-08  2.2408944835834395e-08  4.2088010998881069e-08  7.6102508043488344e-08  1.3329822447638864e-07  2.2712261060417847e-07  3.7725890052852109e-07  6.1123806862163885e-07  9.6574708179501065e-07  1.4873907965575376e-06  2.2327611842486853e-06  3.2677767470096950e-06  4.6663441477802747e-06  6.5084526850134422e-06  8.8778445364956410e-06  1.1859417115493300e-05  1.5536513438002236e-05  1.9988245035738596e-05  2.5286972433030406e-05  3.1496043766998243e-05  3.8667865932661148e-05  4.6842357141091558e-05  5.6045806559362623e-05  6.6290146578396506e-05  7.7572626586234187e-05  8.9875863805678627e-05  1.0316823722506350e-04  1.1740458195036056e-04  1.3252714458644494e-04  1.4846672794626621e-04  1.6514407046312212e-04  1.8247107664968919e-04  2.0035302225708665e-04  2.1868788220963983e-04  2.3737445660911556e-04  2.5629571765829154e-04  2.7536580517331806e-04  2.9443082594838140e-04  3.1345010279772639e-04  3.3231168001499945e-04  3.5050014688278361e-04  3.6996290195802210e-04  3.8362155881637398e-04  2.7019843412285404e-18  2.7647054999439169e-18  2.8347216199274334e-18  2.9607866213926468e-18  3.6134726486557820e-18  8.8849018261112737e-18  5.0549131486286255e-17  3.5185729670455374e-16  2.3355701636211904e-15  1.4192588796083190e-14  7.8457301200622740e-14  3.9459187385871568e-13  1.8079969334041995e-12  7.5561214062427154e-12  2.8835013578230808e-11  1.0062003237249187e-10  3.2171130757482976e-10  9.4486035223436920e-10  2.5566968871680075e-09  6.3959358314520531e-09  1.4853815304606277e-08  3.2184991599170468e-08  6.5451944689167928e-08  1.2575902693795110e-07  2.2989620147331367e-07  4.0253632655073020e-07  6.7901810485121963e-07  1.1084774252574754e-06  1.7567763507792384e-06  2.7085124298561128e-06  4.0674952518529048e-06  5.9554103765534015e-06  8.5087824587384716e-06  1.1874630215210198e-05  1.6205309896394836e-05  2.1653011634618695e-05  2.8364284366942349e-05  3.6474876741346444e-05  4.6105110418390068e-05  5.7355942907764334e-05  7.0305822174037848e-05  8.5008383474998754e-05  1.0149099298262357e-04  1.1975410533391027e-04  1.3977137421968417e-04  1.6149043578915430e-04  1.8483427274318479e-04  2.0970306099491940e-04  2.3597640003753830e-04  2.6351582883104630e-04  2.9216754248352470e-04  3.2176519809088306e-04  3.5213284376792566e-04  3.8308748994544690e-04  4.1444276203531278e-04  4.4600847582020937e-04  4.7760259383675119e-04  5.0902559834708453e-04  5.4013776704365949e-04  5.7067732399379914e-04  6.0065042418313967e-04  6.2969540827712098e-04  6.5751096705531130e-04  6.8615024287355965e-04  7.0610543245669128e-04  4.9208862597559552e-18  5.0356691553981579e-18  5.1847525235616278e-18  5.6568889004323519e-18  9.2110763160475271e-18  3.9566576576545195e-17  2.8096130385020737e-16  2.0284865793161560e-15  1.3507556617253991e-14  8.1873482998017353e-14  4.5120023044871282e-13  2.2623387131069784e-12  1.0329566238075485e-11  4.2986396875306199e-11  1.6322774564947564e-10  5.6638634617406490e-10  1.7992089284751565e-09  5.2437754253856164e-09  1.4057967288660034e-08  3.4775748402438825e-08  7.9682834412750400e-08  1.6989568564139960e-07  3.3888494374438813e-07  6.3615628934823122e-07  1.1309882969673933e-06  1.9163471300241284e-06  3.1130219521797104e-06  4.8734934460690893e-06  7.3843317511575594e-06  1.0865594757972422e-05  1.5566167333887499e-05  2.1755091788733845e-05  2.9710070802092029e-05  3.9704886411092020e-05  5.1997327892137572e-05  6.6818650619749871e-05  8.4365002984719239e-05  1.0479088794798241e-04  1.2820457207009722e-04  1.5466531427988181e-04  1.8418227139217882e-04  2.1671491505941226e-04  2.5217476885605497e-04  2.9042825533507721e-04  3.3130043619638422e-04  3.7457943326401423e-04  4.2002133056964286e-04  4.6735537525389672e-04  5.1628931553820848e-04  5.6651473341593167e-04  6.1771225971051912e-04  6.6955654269993130e-04  7.2172101664005493e-04  7.7388191704998936e-04  8.2572335070562632e-04  8.7693678232684624e-04  9.2723726620676889e-04  9.7632524644201415e-04  1.0240060887009373e-03  1.0698816936262562e-03  1.1140856458019600e-03  1.1558075600625205e-03  1.1954495078769797e-03  1.2343151106995640e-03  1.2613820945630374e-03  8.9036986353919150e-18  9.1222708388451663e-18  9.5089740172982556e-18  1.1593647483177856e-17  2.9908158198750366e-17  1.8917518386827214e-16  1.4572278568379424e-15  1.0619427209645067e-14  7.0628015082863359e-14  4.2694977393001213e-13  2.3459612613755640e-12  1.1723698709780196e-11  5.3322860280416069e-11  2.2092454034579273e-10  8.3470148979509717e-10  2.8797495528103126e-09  9.0866983421607626e-09  2.6273256249671364e-08  6.9772624464642105e-08  1.7066751780357153e-07  3.8583810316778661e-07  8.0951846970386026e-07  1.5837361408164970e-06  2.9047374127729003e-06  5.0239749585856916e-06  8.2448300247617476e-06  1.2918025619721944e-05  1.9437912840375111e-05  2.8238773334980274e-05  3.9787483696585738e-05  5.4568934605220096e-05  7.3063730971594087e-05  9.5721574457894164e-05  1.2293561804475029e-04  1.5502213850413199e-04  1.9220735190561119e-04  2.3462092694329371e-04  2.8229468583618617e-04  3.3516497361600671e-04  3.9307760562969432e-04  4.5579469934287168e-04  5.2300291237731623e-04  5.9432269173546263e-04  6.6931817218176236e-04  7.4750739218075262e-04  8.2837253569105593e-04  9.1136995405714772e-04  9.9593976856066709e-04  1.0815148980104791e-03  1.1675293930118050e-03  1.2534260017761539e-03  1.3386628829038872e-03  1.4227195767622346e-03  1.5051016641839676e-03  1.5853463414186074e-03  1.6630206900756245e-03  1.7377418371817106e-03  1.8091216308105680e-03  1.8769420394682992e-03  1.9406634834022922e-03  2.0006944927160710e-03  2.0554880283152840e-03  2.1070430614058581e-03  2.1540996149648529e-03  2.1872740373887829e-03  1.6015310018625363e-17  1.6462312401663089e-17  1.7689583579140809e-17  2.7003822699574826e-17  1.1367920814142384e-16  8.7132645752257458e-16  6.8954253341588583e-15  5.0312469396541368e-14  3.3389030317005411e-13  2.0128013022933748e-12  1.1025269176984542e-11  5.4903124242862709e-11  2.4872038219048157e-10  1.0258549061038582e-09  3.8560948080511478e-09  1.3225300386281412e-08  4.1444729128371894e-08  1.1887174042258363e-07  3.1270594944580733e-07  7.5638056114199689e-07  1.6873921417775133e-06  3.4845095650478300e-06  6.6891674938720882e-06  1.1996367710825894e-05  2.0211326907140630e-05  3.2185500565239667e-05  4.8757754798942872e-05  7.0722412394255441e-05  9.8826547199774742e-05  1.3377849165522549e-04  1.7624383093105099e-04  2.2681730482390240e-04  2.8597760128004597e-04  3.5404265099928014e-04  4.3114061031863628e-04  5.1720178359116310e-04  6.1196782578876836e-04  7.1501105898162437e-04  8.2575777964309096e-04  9.4351207566048252e-04  1.0674787855301953e-03  1.1967852605458591e-03  1.3305018711357636e-03  1.4676611881808250e-03  1.6072757261340644e-03  1.7483541305209967e-03  1.8899157209279201e-03  2.0310033411187873e-03  2.1706945080550012e-03  2.3081108839615133e-03  2.4424261318346558e-03  2.5728721961852420e-03  2.6987442484552441e-03  2.8194037708315412e-03  2.9342824542747522e-03  3.0428770818628137e-03  3.1447722118194475e-03  3.2395624391570225e-03  3.3270980585802449e-03  3.4067415576818218e-03  3.4794187967908904e-03  3.5424545207675428e-03  3.6009203075108255e-03  3.6476436890922094e-03  3.6821240073679480e-03  2.8670158421379629e-17  2.9678621602670810e-17  3.4018113251812543e-17  7.3255782959797502e-17  4.4614887055009427e-16  3.7070702914753478e-15  2.9580055717502392e-14  2.1557628403583124e-13  1.4270490102256906e-12  8.5776638089714553e-12  4.6831441852480745e-11  2.3235884115363325e-10  1.0483314750953118e-09  4.3040038920068351e-09  1.6093766658146559e-08  5.4866029584586911e-08  1.7074707213055145e-07  4.8581067498526612e-07  1.2660414393442125e-06  3.0287956273491856e-06  6.6697605705988167e-06  1.3563899598335139e-05  2.5573184962882223e-05  4.4906678059705633e-05  7.3839050804097104e-05  1.1437743595955094e-04  1.6801483411049586e-04  2.3567275477785811e-04  3.1782903758323632e-04  4.1472341096561243e-04  5.2650811210725866e-04  6.5327335151891771e-04  7.9496911715225141e-04  9.5129780309450543e-04  1.1216443082067303e-03  1.3050682782577399e-03  1.5003457707229576e-03  1.7060336814501125e-03  1.9205354282391021e-03  2.1421576453917548e-03  2.3691560861912337e-03  2.5997725346978244e-03  2.8322649835998978e-03  3.0649326822364429e-03  3.2961369924741925e-03  3.5243185951433216e-03  3.7480114110161641e-03  3.9658535319392002e-03  4.1765954328988001e-03  4.37