<?xml version="1.0"?>
<VTKFile type="UnstructuredGrid"  version="0.1"  >
<UnstructuredGrid>
<Piece  NumberOfPoints="4225" NumberOfCells="8192">
<Points>
<DataArray  type="Float64"  NumberOfComponents="3"  format="ascii">0 0 0  0.015625 0 0  0.03125 0 0  0.046875 0 0  0.0625 0 0  0.078125 0 0  0.09375 0 0  0.109375 0 0  0.125 0 0  0.140625 0 0  0.15625 0 0  0.171875 0 0  0.1875 0 0  0.203125 0 0  0.21875 0 0  0.234375 0 0  0.25 0 0  0.265625 0 0  0.28125 0 0  0.296875 0 0  0.3125 0 0  0.328125 0 0  0.34375 0 0  0.359375 0 0  0.375 0 0  0.390625 0 0  0.40625 0 0  0.421875 0 0  0.4375 0 0  0.453125 0 0  0.46875 0 0  0.484375 0 0  0.5 0 0  0.515625 0 0  0.53125 0 0  0.546875 0 0  0.5625 0 0  0.578125 0 0  0.59375 0 0  0.609375 0 0  0.625 0 0  0.640625 0 0  0.65625 0 0  0.671875 0 0  0.6875 0 0  0.703125 0 0  0.71875 0 0  0.734375 0 0  0.75 0 0  0.765625 0 0  0.78125 0 0  0.796875 0 0  0.8125 0 0  0.828125 0 0  0.84375 0 0  0.859375 0 0  0.875 0 0  0.890625 0 0  0.90625 0 0  0.921875 0 0  0.9375 0 0  0.953125 0 0  0.96875 0 0  0.984375 0 0  1 0 0  0 0.015625 0  0.015625 0.015625 0  0.03125 0.015625 0  0.046875 0.015625 0  0.0625 0.015625 0  0.078125 0.015625 0  0.09375 0.015625 0  0.109375 0.015625 0  0.125 0.015625 0  0.140625 0.015625 0  0.15625 0.015625 0  0.171875 0.015625 0  0.1875 0.015625 0  0.203125 0.015625 0  0.21875 0.015625 0  0.234375 0.015625 0  0.25 0.015625 0  0.265625 0.015625 0  0.28125 0.015625 0  0.296875 0.015625 0  0.3125 0.015625 0  0.328125 0.015625 0  0.34375 0.015625 0  0.359375 0.015625 0  0.375 0.015625 0  0.390625 0.015625 0  0.40625 0.015625 0  0.421875 0.015625 0  0.4375 0.015625 0  0.453125 0.015625 0  0.46875 0.015625 0  0.484375 0.015625 0  0.5 0.015625 0  0.515625 0.015625 0  0.53125 0.015625 0  0.546875 0.015625 0  0.5625 0.015625 0  0.578125 0.015625 0  0.59375 0.015625 0  0.609375 0.015625 0  0.625 0.015625 0  0.640625 0.015625 0  0.65625 0.015625 0  0.671875 0.015625 0  0.6875 0.015625 0  0.703125 0.015625 0  0.71875 0.015625 0  0.734375 0.015625 0  0.75 0.015625 0  0.765625 0.015625 0  0.78125 0.015625 0  0.796875 0.015625 0  0.8125 0.015625 0  0.828125 0.015625 0  0.84375 0.015625 0  0.859375 0.015625 0  0.875 0.015625 0  0.890625 0.015625 0  0.90625 0.015625 0  0.921875 0.015625 0  0.9375 0.015625 0  0.953125 0.015625 0  0.96875 0.015625 0  0.984375 0.015625 0  1 0.015625 0  0 0.03125 0  0.015625 0.03125 0  0.03125 0.03125 0  0.046875 0.03125 0  0.0625 0.03125 0  0.078125 0.03125 0  0.09375 0.03125 0  0.109375 0.03125 0  0.125 0.03125 0  0.140625 0.03125 0  0.15625 0.03125 0  0.171875 0.03125 0  0.1875 0.03125 0  0.203125 0.03125 0  0.21875 0.03125 0  0.234375 0.03125 0  0.25 0.03125 0  0.265625 0.03125 0  0.28125 0.03125 0  0.296875 0.03125 0  0.3125 0.03125 0  0.328125 0.03125 0  0.34375 0.03125 0  0.359375 0.03125 0  0.375 0.03125 0  0.390625 0.03125 0  0.40625 0.03125 0  0.421875 0.03125 0  0.4375 0.03125 0  0.453125 0.03125 0  0.46875 0.03125 0  0.484375 0.03125 0  0.5 0.03125 0  0.515625 0.03125 0  0.53125 0.03125 0  0.546875 0.03125 0  0.5625 0.03125 0  0.578125 0.03125 0  0.59375 0.03125 0  0.609375 0.03125 0  0.625 0.03125 0  0.640625 0.03125 0  0.65625 0.03125 0  0.671875 0.03125 0  0.6875 0.03125 0  0.703125 0.03125 0  0.71875 0.03125 0  0.734375 0.03125 0  0.75 0.03125 0  0.765625 0.03125 0  0.78125 0.03125 0  0.796875 0.03125 0  0.8125 0.03125 0  0.828125 0.03125 0  0.84375 0.03125 0  0.859375 0.03125 0  0.875 0.03125 0  0.890625 0.03125 0  0.90625 0.03125 0  0.921875 0.03125 0  0.9375 0.03125 0  0.953125 0.03125 0  0.96875 0.03125 0  0.984375 0.03125 0  1 0.03125 0  0 0.046875 0  0.015625 0.046875 0  0.03125 0.046875 0  0.046875 0.046875 0  0.0625 0.046875 0  0.078125 0.046875 0  0.09375 0.046875 0  0.109375 0.046875 0  0.125 0.046875 0  0.140625 0.046875 0  0.15625 0.046875 0  0.171875 0.046875 0  0.1875 0.046875 0  0.203125 0.046875 0  0.21875 0.046875 0  0.234375 0.046875 0  0.25 0.046875 0  0.265625 0.046875 0  0.28125 0.046875 0  0.296875 0.046875 0  0.3125 0.046875 0  0.328125 0.046875 0  0.34375 0.046875 0  0.359375 0.046875 0  0.375 0.046875 0  0.390625 0.046875 0  0.40625 0.046875 0  0.421875 0.046875 0  0.4375 0.046875 0  0.453125 0.046875 0  0.46875 0.046875 0  0.484375 0.046875 0  0.5 0.046875 0  0.515625 0.046875 0  0.53125 0.046875 0  0.546875 0.046875 0  0.5625 0.046875 0  0.578125 0.046875 0  0.59375 0.046875 0  0.609375 0.046875 0  0.625 0.046875 0  0.640625 0.046875 0  0.65625 0.046875 0  0.671875 0.046875 0  0.6875 0.046875 0  0.703125 0.046875 0  0.71875 0.046875 0  0.734375 0.046875 0  0.75 0.046875 0  0.765625 0.046875 0  0.78125 0.046875 0  0.796875 0.046875 0  0.8125 0.046875 0  0.828125 0.046875 0  0.84375 0.046875 0  0.859375 0.046875 0  0.875 0.046875 0  0.890625 0.046875 0  0.90625 0.046875 0  0.921875 0.046875 0  0.9375 0.046875 0  0.953125 0.046875 0  0.96875 0.046875 0  0.984375 0.046875 0  1 0.046875 0  0 0.0625 0  0.015625 0.0625 0  0.03125 0.0625 0  0.046875 0.0625 0  0.0625 0.0625 0  0.078125 0.0625 0  0.09375 0.0625 0  0.109375 0.0625 0  0.125 0.0625 0  0.140625 0.0625 0  0.15625 0.0625 0  0.171875 0.0625 0  0.1875 0.0625 0  0.203125 0.0625 0  0.21875 0.0625 0  0.234375 0.0625 0  0.25 0.0625 0  0.265625 0.0625 0  0.28125 0.0625 0  0.296875 0.0625 0  0.3125 0.0625 0  0.328125 0.0625 0  0.34375 0.0625 0  0.359375 0.0625 0  0.375 0.0625 0  0.390625 0.0625 0  0.40625 0.0625 0  0.421875 0.0625 0  0.4375 0.0625 0  0.453125 0.0625 0  0.46875 0.0625 0  0.484375 0.0625 0  0.5 0.0625 0  0.515625 0.0625 0  0.53125 0.0625 0  0.546875 0.0625 0  0.5625 0.0625 0  0.578125 0.0625 0  0.59375 0.0625 0  0.609375 0.0625 0  0.625 0.0625 0  0.640625 0.0625 0  0.65625 0.0625 0  0.671875 0.0625 0  0.6875 0.0625 0  0.703125 0.0625 0  0.71875 0.0625 0  0.734375 0.0625 0  0.75 0.0625 0  0.765625 0.0625 0  0.78125 0.0625 0  0.796875 0.0625 0  0.8125 0.0625 0  0.828125 0.0625 0  0.84375 0.0625 0  0.859375 0.0625 0  0.875 0.0625 0  0.890625 0.0625 0  0.90625 0.0625 0  0.921875 0.0625 0  0.9375 0.0625 0  0.953125 0.0625 0  0.96875 0.0625 0  0.984375 0.0625 0  1 0.0625 0  0 0.078125 0  0.015625 0.078125 0  0.03125 0.078125 0  0.046875 0.078125 0  0.0625 0.078125 0  0.078125 0.078125 0  0.09375 0.078125 0  0.109375 0.078125 0  0.125 0.078125 0  0.140625 0.078125 0  0.15625 0.078125 0  0.171875 0.078125 0  0.1875 0.078125 0  0.203125 0.078125 0  0.21875 0.078125 0  0.234375 0.078125 0  0.25 0.078125 0  0.265625 0.078125 0  0.28125 0.078125 0  0.296875 0.078125 0  0.3125 0.078125 0  0.328125 0.078125 0  0.34375 0.078125 0  0.359375 0.078125 0  0.375 0.078125 0  0.390625 0.078125 0  0.40625 0.078125 0  0.421875 0.078125 0  0.4375 0.078125 0  0.453125 0.078125 0  0.46875 0.078125 0  0.484375 0.078125 0  0.5 0.078125 0  0.515625 0.078125 0  0.53125 0.078125 0  0.546875 0.078125 0  0.5625 0.078125 0  0.578125 0.078125 0  0.59375 0.078125 0  0.609375 0.078125 0  0.625 0.078125 0  0.640625 0.078125 0  0.65625 0.078125 0  0.671875 0.078125 0  0.6875 0.078125 0  0.703125 0.078125 0  0.71875 0.078125 0  0.734375 0.078125 0  0.75 0.078125 0  0.765625 0.078125 0  0.78125 0.078125 0  0.796875 0.078125 0  0.8125 0.078125 0  0.828125 0.078125 0  0.84375 0.078125 0  0.859375 0.078125 0  0.875 0.078125 0  0.890625 0.078125 0  0.90625 0.078125 0  0.921875 0.078125 0  0.9375 0.078125 0  0.953125 0.078125 0  0.96875 0.078125 0  0.984375 0.078125 0  1 0.078125 0  0 0.09375 0  0.015625 0.09375 0  0.03125 0.09375 0  0.046875 0.09375 0  0.0625 0.09375 0  0.078125 0.09375 0  0.09375 0.09375 0  0.109375 0.09375 0  0.125 0.09375 0  0.140625 0.09375 0  0.15625 0.09375 0  0.171875 0.09375 0  0.1875 0.09375 0  0.203125 0.09375 0  0.21875 0.09375 0  0.234375 0.09375 0  0.25 0.09375 0  0.265625 0.09375 0  0.28125 0.09375 0  0.296875 0.09375 0  0.3125 0.09375 0  0.328125 0.09375 0  0.34375 0.09375 0  0.359375 0.09375 0  0.375 0.09375 0  0.390625 0.09375 0  0.40625 0.09375 0  0.421875 0.09375 0  0.4375 0.09375 0  0.453125 0.09375 0  0.46875 0.09375 0  0.484375 0.09375 0  0.5 0.09375 0  0.515625 0.09375 0  0.53125 0.09375 0  0.546875 0.09375 0  0.5625 0.09375 0  0.578125 0.09375 0  0.59375 0.09375 0  0.609375 0.09375 0  0.625 0.09375 0  0.640625 0.09375 0  0.65625 0.09375 0  0.671875 0.09375 0  0.6875 0.09375 0  0.703125 0.09375 0  0.71875 0.09375 0  0.734375 0.09375 0  0.75 0.09375 0  0.765625 0.09375 0  0.78125 0.09375 0  0.796875 0.09375 0  0.8125 0.09375 0  0.828125 0.09375 0  0.84375 0.09375 0  0.859375 0.09375 0  0.875 0.09375 0  0.890625 0.09375 0  0.90625 0.09375 0  0.921875 0.09375 0  0.9375 0.09375 0  0.953125 0.09375 0  0.96875 0.09375 0  0.984375 0.09375 0  1 0.09375 0  0 0.109375 0  0.015625 0.109375 0  0.03125 0.109375 0  0.046875 0.109375 0  0.0625 0.109375 0  0.078125 0.109375 0  0.09375 0.109375 0  0.109375 0.109375 0  0.125 0.109375 0  0.140625 0.109375 0  0.15625 0.109375 0  0.171875 0.109375 0  0.1875 0.109375 0  0.203125 0.109375 0  0.21875 0.109375 0  0.234375 0.109375 0  0.25 0.109375 0  0.265625 0.109375 0  0.28125 0.109375 0  0.296875 0.109375 0  0.3125 0.109375 0  0.328125 0.109375 0  0.34375 0.109375 0  0.359375 0.109375 0  0.375 0.109375 0  0.390625 0.109375 0  0.40625 0.109375 0  0.421875 0.109375 0  0.4375 0.109375 0  0.453125 0.109375 0  0.46875 0.109375 0  0.484375 0.109375 0  0.5 0.109375 0  0.515625 0.109375 0  0.53125 0.109375 0  0.546875 0.109375 0  0.5625 0.109375 0  0.578125 0.109375 0  0.59375 0.109375 0  0.609375 0.109375 0  0.625 0.109375 0  0.640625 0.109375 0  0.65625 0.109375 0  0.671875 0.109375 0  0.6875 0.109375 0  0.703125 0.109375 0  0.71875 0.109375 0  0.734375 0.109375 0  0.75 0.109375 0  0.765625 0.109375 0  0.78125 0.109375 0  0.796875 0.109375 0  0.8125 0.109375 0  0.828125 0.109375 0  0.84375 0.109375 0  0.859375 0.109375 0  0.875 0.109375 0  0.890625 0.109375 0  0.90625 0.109375 0  0.921875 0.109375 0  0.9375 0.109375 0  0.953125 0.109375 0  0.96875 0.109375 0  0.984375 0.109375 0  1 0.109375 0  0 0.125 0  0.015625 0.125 0  0.03125 0.125 0  0.046875 0.125 0  0.0625 0.125 0  0.078125 0.125 0  0.09375 0.125 0  0.109375 0.125 0  0.125 0.12
[...]
<PointData  Scalars="f_14444"> 
<DataArray  type="Float64"  Name="f_14444"  format="ascii">9.0535322280462579e-04  1.1722204250864932e-03  1.9189080856000151e-03  3.2597730879168063e-03  5.4662262340435478e-03  8.9648664145764913e-03  1.4350624135078574e-02  2.2399342108199584e-02  3.4061208546147165e-02  5.0416739771753642e-02  7.2579062153909038e-02  1.0153243115674301e-01  1.3790948448171775e-01  1.8172884850771950e-01  2.3213745399012814e-01  2.8722187020126422e-01  3.4396134484306490e-01  3.9838363288147238e-01  4.4594910369282520e-01  4.8213315680750446e-01  5.0311522063473180e-01  5.0643476983624580e-01  4.9146081908021111e-01  4.5955220478289105e-01  4.1385718419087808e-01  3.5879209874493845e-01  2.9932059117167792e-01  2.4020008557230094e-01  1.8535732991946627e-01  1.3750476344324791e-01  9.8034851232649614e-02  6.7156950962666467e-02  4.4192510737798119e-02  2.7929050943199717e-02  1.6947869339878557e-02  9.8723745202206441e-03  5.5190113610316463e-03  2.9600788296839835e-03  1.5226278897244459e-03  7.5084179273570708e-04  3.5476724568531663e-04  1.6051124078515872e-04  6.9486141613349321e-05  2.8754614871232037e-05  1.1361124287748030e-05  4.2796017343509116e-06  1.5341189284419326e-06  5.2214037085404676e-07  1.6823342294319730e-07  5.1118959848975471e-08  1.4575063336825209e-08  3.8727416710201042e-09  9.4968059078625990e-10  2.1180086200795616e-10  4.1941725398463189e-11  7.0492079111008349e-12  9.0180517932043645e-13  5.3339455077083859e-14  -1.1549810851556561e-14  -4.2849741965896895e-15  -5.5758383494387134e-16  5.5009022499552484e-17  4.2841539549057121e-17  7.9876418806161449e-18  -1.9893835266802734e-19  7.8728990284638646e-04  1.0171998402131158e-03  1.6865159334652192e-03  2.8957075649366669e-03  4.9007111401934995e-03  8.1086646174229580e-03  1.3093781408861745e-02  2.0615342028829541e-02  3.1618638362329358e-02  4.7200110589760889e-02  6.8519075440852423e-02  9.6643429625048946e-02  1.3232833297968538e-01  1.7574590586999708e-01  2.2620799432310790e-01  2.8194687289520703e-01  3.4003115623588470e-01  3.9648658666665593e-01  4.4665803965526374e-01  4.8579257115589586e-01  5.0975656601670349e-01  5.1574424465392588e-01  5.0281248033130788e-01  4.7210233928470935e-01  4.2667904735041939e-01  3.7101928787011346e-01  3.1026629985098653e-01  2.4942836674075555e-01  1.9269762268410251e-01  1.4301663833897002e-01  1.0194100149629340e-01  6.9766189017235192e-02  4.5831326014707435e-02  2.8892870536306233e-02  1.7474984869892716e-02  1.0137248198244046e-02  5.6385341378810830e-03  3.0060801571857951e-03  1.5354662576958461e-03  7.5104373675387954e-04  3.5156616992471697e-04  1.5737512975574021e-04  6.7304604898951205e-05  2.7467988924794867e-05  1.0681934724362683e-05  3.9511015003874152e-06  1.3868217382642248e-06  4.6052753743189333e-07  1.4411742594122595e-07  4.2277533389116073e-08  1.1541039399257084e-08  2.9004600971503903e-09  6.5991971290725694e-10  1.3201953910614213e-10  2.1854660697171549e-11  2.5005362990882774e-12  2.0001214676931632e-15  -9.3072980611327059e-14  -2.8025303545677118e-14  -4.4175068565100455e-15  -6.3057783501575264e-17  1.8466867992530302e-16  5.5269516308603796e-17  4.9819113091891519e-18  -3.4309156824236326e-18  6.0082505639591955e-04  7.7557732273359989e-04  1.3150213753601392e-03  2.3025523099411741e-03  3.9678311875594808e-03  6.6819504073609912e-03  1.0979417665400717e-02  1.7585595574604637e-02  2.7430669161856609e-02  4.1631262959201241e-02  6.1420025240420291e-02  8.8006101374548923e-02  1.2235907011766746e-01  1.6492739521970778e-01  2.1532839064123593e-01  2.7207449120716976e-01  3.3242048437130872e-01  3.9241664692676670e-01  4.4722449576928952e-01  4.9169438391579323e-01  5.2112880615188018e-01  5.3208470319770651e-01  5.2302951524620600e-01  4.9467990618625329e-01  4.4992228631666220e-01  3.9332194734918724e-01  3.3033763621614431e-01  2.6643276550679978e-01  2.0628843129381047e-01  1.5327573057886990e-01  1.0925720397578806e-01  7.4693382190506183e-02  4.8961358690464293e-02  3.0764553126364880e-02  1.8524986017775788e-02  1.0686904922357682e-02  5.9046694395455505e-03  3.1234228330101945e-03  1.5811411858117541e-03  7.6557955702918250e-04  3.5433678291300587e-04  1.5664388388586100e-04  6.6080050708895095e-05  2.6569294561974709e-05  1.0167553460105370e-05  3.6966189869523962e-06  1.2740352972039382e-06  4.1509111930368935e-07  1.2740243009511107e-07  3.6674834277542676e-08  9.8462516423182476e-09  2.4476974881739578e-09  5.5828566245483191e-10  1.1554335151990592e-10  2.1456033931438842e-11  3.5682526710613038e-12  5.5462923839398695e-13  9.4482641089150044e-14  2.1362959145047533e-14  5.7149895300291653e-15  1.3706740087857063e-15  2.3092387976054103e-16  9.4856494331279740e-18  -9.8193211396931350e-18  -7.8195850970476784e-18  4.5669399746758508e-04  5.9652563037394747e-04  1.0321801371779322e-03  1.8396446738967657e-03  3.2252001092206491e-03  5.5249879612447230e-03  9.2332759586606656e-03  1.5037736690431996e-02  2.3844757965735354e-02  3.6776582286164906e-02  5.5119106371076053e-02  8.0199311344245058e-02  1.1317863603662350e-01  1.5476586887756955e-01  2.0488018881703851e-01  2.6232713068440117e-01  3.2457755195795968e-01  3.8774869838333320e-01  4.4686492951041057e-01  4.9641904938426995e-01  5.3117241237682489e-01  5.4704646559117687e-01  5.4190195496674032e-01  5.1600236870793537e-01  4.7202508001329413e-01  4.1460098802483608e-01  3.4949287210693059e-01  2.8261848390232008e-01  2.1915326391565851e-01  1.6290290413964920e-01  1.1603967455735692e-01  7.9187382622255387e-02  5.1755936363044958e-02  3.2389574948666282e-02  1.9403294983055847e-02  1.1123646877650373e-02  6.1007311111493587e-03  3.1997677287796261e-03  1.6042209578699868e-03  7.6839448873374492e-04  3.5138981025818386e-04  1.5329205516277446e-04  6.3727584814657822e-05  2.5214525116929997e-05  9.4794096011311502e-06  3.3792337028960675e-06  1.1392055475055134e-06  3.6192066193233718e-07  1.0784731158590382e-07  2.9946170742141294e-08  7.6739819373667151e-09  1.7872603824981247e-09  3.6804611614533056e-10  6.3104786410091388e-11  7.4170864787936145e-12  -1.4793827760532236e-13  -4.3142036980566684e-13  -1.6761470086153079e-13  -4.7011081174797725e-14  -1.1146632934875765e-14  -2.3608126349854531e-15  -4.5139520355161428e-16  -7.3462696366009894e-17  -7.4028453008954631e-18  1.7016566284634038e-18  3.4247150481046709e-04  4.5239018218236885e-04  7.9835335813825800e-04  1.4495098038449891e-03  2.5875708212613445e-03  4.5124373540292957e-03  7.6751655821446340e-03  1.2719420840513638e-02  2.0517120368417133e-02  3.2181085473479545e-02  4.9032561879784144e-02  7.2499089334783051e-02  1.0392275229821785e-01  1.4427402705520787e-01  1.9379360429901935e-01  2.5162037702773488e-01  3.1549869109252365e-01  3.8167708554916308e-01  4.4509834883368271e-01  4.9992764877827933e-01  5.4037697613953684e-01  5.6168320575517250e-01  5.6101980630709103e-01  5.3810431921739799e-01  4.9532329267019143e-01  4.3732170650738911e-01  3.7015434082476728e-01  3.0021787510893377e-01  2.3323085998140394e-01  1.7349007636443281e-01  1.2352719772016291e-01  8.4163413206982521e-02  5.4857932820288738e-02  3.4197748630006325e-02  2.0383675686275134e-02  1.1613710663465655e-02  6.3230085775334904e-03  3.2883429921751789e-03  1.6328000616562793e-03  7.7365557462543994e-04  3.4955690738939837e-04  1.5047513604568078e-04  6.1647180814957409e-05  2.4003057329700093e-05  8.8669226060876576e-06  3.1008516830128884e-06  1.0237166663043783e-06  3.1791790690335731e-07  9.2442568085327966e-08  2.5015676982836770e-08  6.2496538262990249e-09  1.4264264474401392e-09  2.9362168672655132e-10  5.3883106412636983e-11  8.9157549322092065e-12  1.4954780058970181e-12  3.4502690743865170e-13  1.1817798886511812e-13  4.3881903522116510e-14  1.4671606346682390e-14  4.2364886728448231e-15  1.0477927631752927e-15  2.1841670431335189e-16  3.4965993053978235e-17  7.2787710874736939e-18  2.5337669447714195e-04  3.3867259763681155e-04  6.1000400179956433e-04  1.1289845750239089e-03  2.0532045313281211e-03  3.6468752089647140e-03  6.3166733107278914e-03  1.0657845288194009e-02  1.7498941565793250e-02  2.7929357005450087e-02  4.3287253842155843e-02  6.5080569277256889e-02  9.4815167043618351e-02  1.3371645027707785e-01  1.8235689238884831e-01  2.4024042523591252e-01  3.0543690507101767e-01  3.7439018540406549e-01  4.4202249046046571e-01  5.0221134449096716e-01  5.4862340023343459e-01  5.7577330311717401e-01  5.8007491831020497e-01  5.6061130726813346e-01  5.1939731434403902e-01  4.6103959499760078e-01  3.9187162615622501e-01  3.1879247412606837e-01  2.4811120021282695e-01  1.8466979780889869e-01  1.3140516710579500e-01  8.9364881571401739e-02  5.8068455796599118e-02  3.6042793202162839e-02  2.1364144431970634e-02  1.2089728668918654e-02  6.5293390287797419e-03  3.3641402936446748e-03  1.6528129754328599e-03  7.7385504205160064e-04  3.4503013710291666e-04  1.4635450708371116e-04  5.8991353741177346e-05  2.2560372535184884e-05  8.1703820824586469e-06  2.7951333258687922e-06  9.0039579334758016e-07  2.7195473981299030e-07  7.6577833804190327e-08  1.9941196540157654e-08  4.7447821358174521e-09  1.0114405899460926e-09  1.8601962300895794e-10  2.6834866411541565e-11  1.8982117339754836e-12  -5.3695842043063952e-13  -3.2838640499015462e-13  -1.2209365941607459e-13  -4.1274768160669437e-14  -1.3785566343428100e-14  -4.4971694899387589e-15  -1.3756954477254942e-15  -3.7958089826933012e-16  -8.9518782479776351e-17  -3.6819344631811844e-17  1.8480466486210247e-04  2.5006764306188703e-04  4.5999076561236785e-04  8.6827427649231726e-04  1.6095598158956399e-03  2.9135115853964506e-03  5.1420564838878888e-03  8.8386829806699728e-03  1.4780775453152425e-02  2.4020952946639612e-02  3.7895488048886594e-02  5.7970607242114607e-02  8.5895348171528732e-02  1.2313817414932310e-01  1.7060839771281719e-01  2.2820329789758842e-01  2.9437080054522802e-01  3.6581981121547852e-01  4.3752347460135549e-01  5.0312443711872623e-01  5.5575914434067331e-01  5.8918775576257998e-01  5.9898952599099597e-01  5.8351420606355464e-01  5.4430940086732937e-01  4.8587673437584800e-01  4.1480533772683409e-01  3.3851705267179938e-01  2.6396196104505687e-01  1.9658829577389747e-01  1.3979176251171047e-01  9.4881650490127881e-02  6.1452653687986358e-02  3.7970270096816063e-02  2.2375719760708672e-02  1.2572364278211255e-02  6.7331968890571746e-03  3.4357287471807997e-03  1.6695419295087487e-03  7.7212801225036713e-04  3.3959058269070262e-04  1.4189434442770372e-04  5.6256014237397243e-05  2.1128486655994306e-05  7.5018933431295005e-06  2.5114858251582585e-06  7.9006832304036169e-07  2.3250287819678122e-07  6.3625283523930479e-08  1.6059725858423613e-08  3.6967790203739240e-09  7.6357500119768641e-10  1.3831778911712568e-10  2.1394449541921701e-11  2.8743622701126857e-12  4.6652750953016120e-13  1.6226629566997183e-13  7.7347811085561321e-14  3.3545121304384001e-14  1.2860388619682885e-14  4.5095324292358684e-15  1.4804052313528596e-15  4.5670776798798658e-16  1.2978257963962927e-16  6.9781195092426177e-17  1.3278025466714768e-04  1.8198098778002999e-04  3.4208529112909468e-04  6.5891497513882031e-04  1.2457564453269261e-03  2.2994494455118352e-03  4.1377616526984372e-03  7.2504129173055184e-03  1.2357307448511597e-02  2.0462149755129735e-02  3.2880804363959890e-02  5.1214313267133056e-02  7.7230749483505723e-02  1.1262416824430709e-01  1.5863914729308307e-01  2.1558896028151958e-01  2.8234994305374284e-01  3.5596899151062317e-01  4.3155063715900932e-01  5.0256823647667548e-01  5.6165587434485609e-01  6.0179502369287929e-01  6.1765554128318734e-01  6.0674719258771892e-01  5.7004186352366459e-01  5.1185624434725763e-01  4.3900315999555090e-01  3.5944527515617475e-01  2.8082785498076102e-01  2.0927336151360665e-01  1.4869694929706131e-01  1.0070982337179546e-01  6.4998646821618641e-02  3.9965707095146241e-02  2.3404991262280146e-02  1.3051018744146652e-02  6.9271119789311155e-03  3.4982980035411031e-03  1.6801096288501160e-03  7.6685410988974073e-04  3.3236859870615186e-04  1.3664493197049996e-04  5.3215038922370540e-05  1.9596183698172969e-05  6.8078320035102040e-06  2.2245914930692515e-06  6.8106490012309938e-07  1.9432623142700258e-07  5.1299552281766812e-08  1.2398651893335425e-08  2.6996278087117957e-09  5.1515224016545274e-10  8.1417744842316704e-11  9.0037151125115029e-12  2.1688332857590570e-14  -3.5866663812475512e-13  -1.4933187761189965e-13  -5.4543699376455932e-14  -2.1663685305545482e-14  -9.0174625707190908e-15  -3.6321368732933630e-15  -1.3635057532568504e-15  -4.7321500592507927e-16  -1.5174025232503145e-16  -9.3093579592597269e-17  9.3901994185738367e-05  1.3041821217282489e-04  2.5069468039757436e-04  4.9302168973706906e-04  9.5121109935358752e-04  1.7914960936487099e-03  3.2889462244679040e-03  5.8787895424640387e-03  1.0218717873332880e-02  1.7252886085570893e-02  2.8259001052419172e-02  4.4848643521286223e-02  6.8881679717239422e-02  1.0225470937025970e-01  1.4653877403722773e-01  2.0247892014241359e-01  2.6942653468169125e-01  3.4484151815498104e-01  4.2404914278732592e-01  5.0043317770725060e-01  5.6616833219659424e-01  6.1344392715935347e-01  6.3594765578237966e-01  6.3023487368222153e-01  5.9657863509671705e-01  5.3901483962333363e-01  4.6453641481820013e-01  3.8166083084758490e-01  2.9878597591606060e-01  2.2278420559032497e-01  1.5815903957916402e-01  1.0686981411903364e-01  6.8714656320397749e-02  4.2030763273176702e-02  2.4451116481914951e-02  1.3524561842359993e-02  7.1104744552516622e-03  3.5517942243505013e-03  1.6847834444969549e-03  7.5839159053261486e-04  3.2367870665374007e-04  1.3083094262638777e-04  5.0008192536817428e-05  1.8041665523079194e-05  6.1283265193107395e-06  1.9536035277865222e-06  5.8199302082408945e-07  1.6111130325610195e-07  4.1125185302888125e-08  9.5755683911186351e-09  2.0020855995443470e-09  3.6712971358291959e-10  5.6967546693016367e-11  7.1596922443573942e-12  7.8765993855013261e-13  1.6675933569099425e-13  8.1563508175062820e-14  3.9081232350523157e-14  1.6468778003672293e-14  6.5990194547918431e-15  2.6335735637688793e-15  1.0433979245587468e-15  3.9980594034479574e-16  1.4576619701287052e-16  1.0125780033014388e-16  6.5307199384172967e-05  9.1965414244230367e-05  1.8089035236357396e-04  3.6341712252722404e-04  7.1595126718362694e-04  1.3767198535400121e-03  2.5803143136007697e-03  4.7079868264173763e-03  8.3521583120154935e-03  1.4388603519680201e-02  2.4040422818363820e-02  3.8905338135625148e-02  6.0905276546983467e-02  9.2110971206051190e-02  1.3440339743790050e-01  1.8896694987665300e-01  2.5566910587333658e-01  3.3245805585612542e-01  4.1497719881178508e-01  4.9661524132064355e-01  5.6914787104350895e-01  6.2397246219865576e-01  6.5372617432597668e-01  6.5388852761872207e-01  6.2389485104873832e-01  5.6738607020968745e-01  4.9147760209488400e-01  4.0525027715826345e-01  3.1791535883618793e-01  2.3717950316684686e-01  1.6821314075725247e-01  1.1337696638417702e-01  7.2603136980081098e-02  4.4161640009160251e-02  2.5508693569967929e-02  1.3988383937908270e-02  7.2801884064679781e-03  3.5944687527860188e-03  1.6827137151585287e-03  7.4638210326651705e-04  3.1338768116253267e-04  1.2440559281699107e-04  4.6616429408318862e-05  1.6453949074615938e-05  5.4556107001061232e-06  1.6931279548388812e-06  4.8945549682969234e-07  1.3093411506022565e-07  3.2112595285472289e-08  7.1220905135490678e-09  1.3972983466970246e-09  2.3296824922775895e-10  3.0066687830136245e-11  2.0239075231477425e-12  -3.2821134988023925e-13  -1.7905683409993527e-13  -5.9773102988497206e-14  -2.2401166776930365e-14  -9.7692951379752651e-15  -4.3469838063260006e-15  -1.8599300464005021e-15  -7.6512657358903579e-16  -3.0524779855350863e-16  -1.1934188767517092e-16  -9.0380345263815314e-17  4.4626471223091827e-05  6.3751571071348650e-05  1.2839682912716875e-04  2.6366973621603211e-04  5.3072752821401174e-04  1.0426512618636002e-03  1.9964005121994670e-03  3.7209127929594536e-03  6.7419761370515882e-03  1.1860190046892278e-02  2.0229398366626392e-02  3.3409672041593633e-02  5.3353534799814806e-02  8.2272516657429975e-02  1.2233298372372113e-01  1.7515680628700095e-01  2.4116094708004221e-01  3.1885527569551891e-01  4.0430544565829524e-01  4.9101489358802958e-01  5.7044035385099812e-01  6.3320457225469573e-01  6.7083324900987640e-01  6.7760288337492758e-01  6.5195530478188779e-01  5.9700117001745123e-01  5.1990371520114831e-01  4.3030833616482783e-01  3.3830350314342067e-01  2.5252441984338692e-01  1.7889815233010684e-01  1.2024819109868165e-01  7.6666854636710108e-02  4.6354459608659908e-02  2.6572341687653871e-02  1.4438128268391559e-02  7.4335703092012536e-03  3.6250199497026188e-03  1.6734402566533691e-03  7.3076076896458060e-04  3.0156130576189253e-04  1.1744680606412670e-04  4.3094338326917423e-05  1.4863610920158025e-05  4.8045518674061639e-06  1.4497192915789259e-06  4.0617301156958959e-07  1.0490314140280253e-07  2.4723629339876501e-08  5.2395793281902946e-09  9.7647538476852978e-10  1.5446787050295961e-10  1.9614119331533101e-11  1.9162646317852309e-12  2.3737732584955388e-13  9.9815411487198687e-14  4.8958974945733585e-14  1.9766174630231360e-14  7.4044498859334290e-15  2.8792128734212290e-15  1.1943617772058170e-15  5.0939021711014478e-16  2.1482809147341853e-16  8.9394150948131788e-17  7.1771108645358689e-17  2.9932596947159886e-05  4.3402780706241200e-05  8.9566218593058032e-05  1.8811191642847917e-04  3.8710817449554729e-04  7.7748867104984938e-04  1.5219060989455045e-03  2.8996553323756336e-03  5.3701834972622814e-03  9.6543119316698650e-03  1.6824227963636959e-02  2.8379919567570348e-02  4.6272211831903325e-02  7.2815856835666840e-02  1.1043004593286068e-01  1.6116171341663482e-01  2.2600090342038837e-01  3.0408806735926319e-01  3.9202009358339862e-01  4.8354016999004684e-01  5.6988812921936605e-01  6.4095039294677381e-01  6.8709150916746553e-01  7.0125389941407357e-01  6.8071234281815207e-01  6.2788772594264841e-01  5.4989575862510010e-01  4.5693784740601828e-01  3.6004619713888292e-01  2.6888992553283364e-01  1.9025550836373512e-01  1.2750033041000930e-01  8.0907151751073991e-02  4.8603659605781009e-02  2.7635342248370151e-02  1.4868604061861536e-02  7.5675084244307220e-03  3.6419581473308700e-03  1.6564240603230370e-03  7.1142134255846256e-04  2.8823399207881308e-04  1.1000550890639787e-04  3.9474789472183707e-05  1.3285603110530415e-05  4.1798996578160649e-06  1.2239389529380046e-06  3.3156732991559449e-07  8.2416402747895911e-08  1.8575599051158155e-08  3.7289802192279979e-09  6.4742775903524556e-10  9.1930991925866151e-11  9.2425692336300022e-12  2.3287036876376774e-13  -1.6359891280376525e-13  -6.1796900286373184e-14  -2.4131203536165156e-14  -1.1270740990181160e-14  -5.1255175935109928e-15  -2.1448353428475003e-15  -8.5929055940067565e-16  -3.4632643569062095e-16  -1.4328187996360254e-16  -6.1299665118875389e-17  -5.1542825923284219e-17  1.9686348091720796e-05  2.8990616501878372e-05  6.1339383818421534e-05  1.3183477571625707e-04  2.7754077736949170e-04  5.7026634667991280e-04  1.1420048025847964e-03  2.2259222972063463e-03  4.2169629278439062e-03  7.7538289960693025e-03  1.3817277000706389e-02  2.3826886040354111e-02  3.9699671235895392e-02  6.3812735188542899e-02  9.8797825076770249e-02  1.4710314179689057e-01  2.1030342181883244e-01  2.8823111262028217e-01  3.7812559141272611e-01  4.7410936217068689e-01  5.6733144630770027e-01  6.4700552515608978e-01  7.0230120957963116e-01  7.2469468351142463e-01  7.1010184252381903e-01  6.6006673092287849e-01  5.8153720731541270e-01  4.8524931058533732e-01  3.8324753613886581e-01  2.8635279792433116e-01  2.0232898783459563e-01  1.3514985492968290e-01  8.5323697244548150e-02  5.0901904038491236e-02  2.8689719518371584e-02  1.5273976285139393e-02  7.6786873757795013e-03  3.6438118604186203e-03  1.6312113108079391e-03  6.8833555515550023e-04  2.7349094851175361e-04  1.0216024564197494e-04  3.5804263721864264e-05  1.1741481132507390e-05  3.5898206760681548e-06  1.0182880467742753e-06  2.6621967329569686e-07 