<?xml version="1.0"?>
<VTKFile type="UnstructuredGrid"  version="0.1"  >
<UnstructuredGrid>
<Piece  NumberOfPoints="4225" NumberOfCells="8192">
<Points>
<DataArray  type="Float64"  NumberOfComponents="3"  format="ascii">0 0 0  0.015625 0 0  0.03125 0 0  0.046875 0 0  0.0625 0 0  0.078125 0 0  0.09375 0 0  0.109375 0 0  0.125 0 0  0.140625 0 0  0.15625 0 0  0.171875 0 0  0.1875 0 0  0.203125 0 0  0.21875 0 0  0.234375 0 0  0.25 0 0  0.265625 0 0  0.28125 0 0  0.296875 0 0  0.3125 0 0  0.328125 0 0  0.34375 0 0  0.359375 0 0  0.375 0 0  0.390625 0 0  0.40625 0 0  0.421875 0 0  0.4375 0 0  0.453125 0 0  0.46875 0 0  0.484375 0 0  0.5 0 0  0.515625 0 0  0.53125 0 0  0.546875 0 0  0.5625 0 0  0.578125 0 0  0.59375 0 0  0.609375 0 0  0.625 0 0  0.640625 0 0  0.65625 0 0  0.671875 0 0  0.6875 0 0  0.703125 0 0  0.71875 0 0  0.734375 0 0  0.75 0 0  0.765625 0 0  0.78125 0 0  0.796875 0 0  0.8125 0 0  0.828125 0 0  0.84375 0 0  0.859375 0 0  0.875 0 0  0.890625 0 0  0.90625 0 0  0.921875 0 0  0.9375 0 0  0.953125 0 0  0.96875 0 0  0.984375 0 0  1 0 0  0 0.015625 0  0.015625 0.015625 0  0.03125 0.015625 0  0.046875 0.015625 0  0.0625 0.015625 0  0.078125 0.015625 0  0.09375 0.015625 0  0.109375 0.015625 0  0.125 0.015625 0  0.140625 0.015625 0  0.15625 0.015625 0  0.171875 0.015625 0  0.1875 0.015625 0  0.203125 0.015625 0  0.21875 0.015625 0  0.234375 0.015625 0  0.25 0.015625 0  0.265625 0.015625 0  0.28125 0.015625 0  0.296875 0.015625 0  0.3125 0.015625 0  0.328125 0.015625 0  0.34375 0.015625 0  0.359375 0.015625 0  0.375 0.015625 0  0.390625 0.015625 0  0.40625 0.015625 0  0.421875 0.015625 0  0.4375 0.015625 0  0.453125 0.015625 0  0.46875 0.015625 0  0.484375 0.015625 0  0.5 0.015625 0  0.515625 0.015625 0  0.53125 0.015625 0  0.546875 0.015625 0  0.5625 0.015625 0  0.578125 0.015625 0  0.59375 0.015625 0  0.609375 0.015625 0  0.625 0.015625 0  0.640625 0.015625 0  0.65625 0.015625 0  0.671875 0.015625 0  0.6875 0.015625 0  0.703125 0.015625 0  0.71875 0.015625 0  0.734375 0.015625 0  0.75 0.015625 0  0.765625 0.015625 0  0.78125 0.015625 0  0.796875 0.015625 0  0.8125 0.015625 0  0.828125 0.015625 0  0.84375 0.015625 0  0.859375 0.015625 0  0.875 0.015625 0  0.890625 0.015625 0  0.90625 0.015625 0  0.921875 0.015625 0  0.9375 0.015625 0  0.953125 0.015625 0  0.96875 0.015625 0  0.984375 0.015625 0  1 0.015625 0  0 0.03125 0  0.015625 0.03125 0  0.03125 0.03125 0  0.046875 0.03125 0  0.0625 0.03125 0  0.078125 0.03125 0  0.09375 0.03125 0  0.109375 0.03125 0  0.125 0.03125 0  0.140625 0.03125 0  0.15625 0.03125 0  0.171875 0.03125 0  0.1875 0.03125 0  0.203125 0.03125 0  0.21875 0.03125 0  0.234375 0.03125 0  0.25 0.03125 0  0.265625 0.03125 0  0.28125 0.03125 0  0.296875 0.03125 0  0.3125 0.03125 0  0.328125 0.03125 0  0.34375 0.03125 0  0.359375 0.03125 0  0.375 0.03125 0  0.390625 0.03125 0  0.40625 0.03125 0  0.421875 0.03125 0  0.4375 0.03125 0  0.453125 0.03125 0  0.46875 0.03125 0  0.484375 0.03125 0  0.5 0.03125 0  0.515625 0.03125 0  0.53125 0.03125 0  0.546875 0.03125 0  0.5625 0.03125 0  0.578125 0.03125 0  0.59375 0.03125 0  0.609375 0.03125 0  0.625 0.03125 0  0.640625 0.03125 0  0.65625 0.03125 0  0.671875 0.03125 0  0.6875 0.03125 0  0.703125 0.03125 0  0.71875 0.03125 0  0.734375 0.03125 0  0.75 0.03125 0  0.765625 0.03125 0  0.78125 0.03125 0  0.796875 0.03125 0  0.8125 0.03125 0  0.828125 0.03125 0  0.84375 0.03125 0  0.859375 0.03125 0  0.875 0.03125 0  0.890625 0.03125 0  0.90625 0.03125 0  0.921875 0.03125 0  0.9375 0.03125 0  0.953125 0.03125 0  0.96875 0.03125 0  0.984375 0.03125 0  1 0.03125 0  0 0.046875 0  0.015625 0.046875 0  0.03125 0.046875 0  0.046875 0.046875 0  0.0625 0.046875 0  0.078125 0.046875 0  0.09375 0.046875 0  0.109375 0.046875 0  0.125 0.046875 0  0.140625 0.046875 0  0.15625 0.046875 0  0.171875 0.046875 0  0.1875 0.046875 0  0.203125 0.046875 0  0.21875 0.046875 0  0.234375 0.046875 0  0.25 0.046875 0  0.265625 0.046875 0  0.28125 0.046875 0  0.296875 0.046875 0  0.3125 0.046875 0  0.328125 0.046875 0  0.34375 0.046875 0  0.359375 0.046875 0  0.375 0.046875 0  0.390625 0.046875 0  0.40625 0.046875 0  0.421875 0.046875 0  0.4375 0.046875 0  0.453125 0.046875 0  0.46875 0.046875 0  0.484375 0.046875 0  0.5 0.046875 0  0.515625 0.046875 0  0.53125 0.046875 0  0.546875 0.046875 0  0.5625 0.046875 0  0.578125 0.046875 0  0.59375 0.046875 0  0.609375 0.046875 0  0.625 0.046875 0  0.640625 0.046875 0  0.65625 0.046875 0  0.671875 0.046875 0  0.6875 0.046875 0  0.703125 0.046875 0  0.71875 0.046875 0  0.734375 0.046875 0  0.75 0.046875 0  0.765625 0.046875 0  0.78125 0.046875 0  0.796875 0.046875 0  0.8125 0.046875 0  0.828125 0.046875 0  0.84375 0.046875 0  0.859375 0.046875 0  0.875 0.046875 0  0.890625 0.046875 0  0.90625 0.046875 0  0.921875 0.046875 0  0.9375 0.046875 0  0.953125 0.046875 0  0.96875 0.046875 0  0.984375 0.046875 0  1 0.046875 0  0 0.0625 0  0.015625 0.0625 0  0.03125 0.0625 0  0.046875 0.0625 0  0.0625 0.0625 0  0.078125 0.0625 0  0.09375 0.0625 0  0.109375 0.0625 0  0.125 0.0625 0  0.140625 0.0625 0  0.15625 0.0625 0  0.171875 0.0625 0  0.1875 0.0625 0  0.203125 0.0625 0  0.21875 0.0625 0  0.234375 0.0625 0  0.25 0.0625 0  0.265625 0.0625 0  0.28125 0.0625 0  0.296875 0.0625 0  0.3125 0.0625 0  0.328125 0.0625 0  0.34375 0.0625 0  0.359375 0.0625 0  0.375 0.0625 0  0.390625 0.0625 0  0.40625 0.0625 0  0.421875 0.0625 0  0.4375 0.0625 0  0.453125 0.0625 0  0.46875 0.0625 0  0.484375 0.0625 0  0.5 0.0625 0  0.515625 0.0625 0  0.53125 0.0625 0  0.546875 0.0625 0  0.5625 0.0625 0  0.578125 0.0625 0  0.59375 0.0625 0  0.609375 0.0625 0  0.625 0.0625 0  0.640625 0.0625 0  0.65625 0.0625 0  0.671875 0.0625 0  0.6875 0.0625 0  0.703125 0.0625 0  0.71875 0.0625 0  0.734375 0.0625 0  0.75 0.0625 0  0.765625 0.0625 0  0.78125 0.0625 0  0.796875 0.0625 0  0.8125 0.0625 0  0.828125 0.0625 0  0.84375 0.0625 0  0.859375 0.0625 0  0.875 0.0625 0  0.890625 0.0625 0  0.90625 0.0625 0  0.921875 0.0625 0  0.9375 0.0625 0  0.953125 0.0625 0  0.96875 0.0625 0  0.984375 0.0625 0  1 0.0625 0  0 0.078125 0  0.015625 0.078125 0  0.03125 0.078125 0  0.046875 0.078125 0  0.0625 0.078125 0  0.078125 0.078125 0  0.09375 0.078125 0  0.109375 0.078125 0  0.125 0.078125 0  0.140625 0.078125 0  0.15625 0.078125 0  0.171875 0.078125 0  0.1875 0.078125 0  0.203125 0.078125 0  0.21875 0.078125 0  0.234375 0.078125 0  0.25 0.078125 0  0.265625 0.078125 0  0.28125 0.078125 0  0.296875 0.078125 0  0.3125 0.078125 0  0.328125 0.078125 0  0.34375 0.078125 0  0.359375 0.078125 0  0.375 0.078125 0  0.390625 0.078125 0  0.40625 0.078125 0  0.421875 0.078125 0  0.4375 0.078125 0  0.453125 0.078125 0  0.46875 0.078125 0  0.484375 0.078125 0  0.5 0.078125 0  0.515625 0.078125 0  0.53125 0.078125 0  0.546875 0.078125 0  0.5625 0.078125 0  0.578125 0.078125 0  0.59375 0.078125 0  0.609375 0.078125 0  0.625 0.078125 0  0.640625 0.078125 0  0.65625 0.078125 0  0.671875 0.078125 0  0.6875 0.078125 0  0.703125 0.078125 0  0.71875 0.078125 0  0.734375 0.078125 0  0.75 0.078125 0  0.765625 0.078125 0  0.78125 0.078125 0  0.796875 0.078125 0  0.8125 0.078125 0  0.828125 0.078125 0  0.84375 0.078125 0  0.859375 0.078125 0  0.875 0.078125 0  0.890625 0.078125 0  0.90625 0.078125 0  0.921875 0.078125 0  0.9375 0.078125 0  0.953125 0.078125 0  0.96875 0.078125 0  0.984375 0.078125 0  1 0.078125 0  0 0.09375 0  0.015625 0.09375 0  0.03125 0.09375 0  0.046875 0.09375 0  0.0625 0.09375 0  0.078125 0.09375 0  0.09375 0.09375 0  0.109375 0.09375 0  0.125 0.09375 0  0.140625 0.09375 0  0.15625 0.09375 0  0.171875 0.09375 0  0.1875 0.09375 0  0.203125 0.09375 0  0.21875 0.09375 0  0.234375 0.09375 0  0.25 0.09375 0  0.265625 0.09375 0  0.28125 0.09375 0  0.296875 0.09375 0  0.3125 0.09375 0  0.328125 0.09375 0  0.34375 0.09375 0  0.359375 0.09375 0  0.375 0.09375 0  0.390625 0.09375 0  0.40625 0.09375 0  0.421875 0.09375 0  0.4375 0.09375 0  0.453125 0.09375 0  0.46875 0.09375 0  0.484375 0.09375 0  0.5 0.09375 0  0.515625 0.09375 0  0.53125 0.09375 0  0.546875 0.09375 0  0.5625 0.09375 0  0.578125 0.09375 0  0.59375 0.09375 0  0.609375 0.09375 0  0.625 0.09375 0  0.640625 0.09375 0  0.65625 0.09375 0  0.671875 0.09375 0  0.6875 0.09375 0  0.703125 0.09375 0  0.71875 0.09375 0  0.734375 0.09375 0  0.75 0.09375 0  0.765625 0.09375 0  0.78125 0.09375 0  0.796875 0.09375 0  0.8125 0.09375 0  0.828125 0.09375 0  0.84375 0.09375 0  0.859375 0.09375 0  0.875 0.09375 0  0.890625 0.09375 0  0.90625 0.09375 0  0.921875 0.09375 0  0.9375 0.09375 0  0.953125 0.09375 0  0.96875 0.09375 0  0.984375 0.09375 0  1 0.09375 0  0 0.109375 0  0.015625 0.109375 0  0.03125 0.109375 0  0.046875 0.109375 0  0.0625 0.109375 0  0.078125 0.109375 0  0.09375 0.109375 0  0.109375 0.109375 0  0.125 0.109375 0  0.140625 0.109375 0  0.15625 0.109375 0  0.171875 0.109375 0  0.1875 0.109375 0  0.203125 0.109375 0  0.21875 0.109375 0  0.234375 0.109375 0  0.25 0.109375 0  0.265625 0.109375 0  0.28125 0.109375 0  0.296875 0.109375 0  0.3125 0.109375 0  0.328125 0.109375 0  0.34375 0.109375 0  0.359375 0.109375 0  0.375 0.109375 0  0.390625 0.109375 0  0.40625 0.109375 0  0.421875 0.109375 0  0.4375 0.109375 0  0.453125 0.109375 0  0.46875 0.109375 0  0.484375 0.109375 0  0.5 0.109375 0  0.515625 0.109375 0  0.53125 0.109375 0  0.546875 0.109375 0  0.5625 0.109375 0  0.578125 0.109375 0  0.59375 0.109375 0  0.609375 0.109375 0  0.625 0.109375 0  0.640625 0.109375 0  0.65625 0.109375 0  0.671875 0.109375 0  0.6875 0.109375 0  0.703125 0.109375 0  0.71875 0.109375 0  0.734375 0.109375 0  0.75 0.109375 0  0.765625 0.109375 0  0.78125 0.109375 0  0.796875 0.109375 0  0.8125 0.109375 0  0.828125 0.109375 0  0.84375 0.109375 0  0.859375 0.109375 0  0.875 0.109375 0  0.890625 0.109375 0  0.90625 0.109375 0  0.921875 0.109375 0  0.9375 0.109375 0  0.953125 0.109375 0  0.96875 0.109375 0  0.984375 0.109375 0  1 0.109375 0  0 0.125 0  0.015625 0.125 0  0.03125 0.125 0  0.046875 0.125 0  0.0625 0.125 0  0.078125 0.125 0  0.09375 0.125 0  0.109375 0.125 0  0.125 0.12
[...]
<PointData  Scalars="f_14444"> 
<DataArray  type="Float64"  Name="f_14444"  format="ascii">6.8214009714172736e-15  6.9347796187042766e-15  7.1227280887952390e-15  7.3271801171986146e-15  7.5390337470558787e-15  7.7569733915861678e-15  7.9809191396411579e-15  8.2109920689460126e-15  8.4473491087415811e-15  8.6901564349221803e-15  8.9395861275476489e-15  9.1958213222000614e-15  9.4590772893751200e-15  9.7296569307439197e-15  1.0008053342338201e-14  1.0295040433417686e-14  1.0591467119729823e-14  1.0897035751533896e-14  1.1206873710637565e-14  1.1504819974131553e-14  1.1753980625279628e-14  1.1888588641987251e-14  1.1814877011889096e-14  1.1428677798819725e-14  1.0650411818971678e-14  9.4657047023419654e-15  7.9504196711384434e-15  6.2620324739237035e-15  4.5963284861929207e-15  3.1286763023320638e-15  1.9677507931692928e-15  1.1404894556310430e-15  6.0809852020689054e-16  2.9804846110670890e-16  1.3437254927978169e-16  5.5926877480137960e-17  2.1740547883869183e-17  8.1720741245670906e-18  3.2588664044620906e-18  1.6324962551983440e-18  1.1392008231801295e-18  1.0017195062756070e-18  9.6639213500722184e-19  9.5798717622880914e-19  9.5612606473151508e-19  9.5574005599152952e-19  9.5566448090784859e-19  9.5565038446432829e-19  9.5564785304548242e-19  9.5564741026251746e-19  9.5564733386250706e-19  9.5564732066116845e-19  9.5564731832305232e-19  9.5564731787842328e-19  9.5564731777931608e-19  9.5564731775078670e-19  9.5564731774019909e-19  9.5564731773564793e-19  9.5564731773360336e-19  9.5564731773269798e-19  9.5564731773231511e-19  9.5564731773216450e-19  9.5564731773211173e-19  9.5564731773209613e-19  9.5564731773209324e-19  6.8275384945995979e-15  6.9284622698583192e-15  7.1218524342370570e-15  7.3270500413651015e-15  7.5390243776240716e-15  7.7569843076550274e-15  7.9809347411352498e-15  8.2110100672539674e-15  8.4473693588006411e-15  8.6901849251989423e-15  8.9396713948778474e-15  9.1962155080571170e-15  9.4608078377634275e-15  9.7362443287666292e-15  1.0029945458963518e-14  1.0359443558993849e-14  1.0760824900206290e-14  1.1297553737033367e-14  1.2061861397812079e-14  1.3155960025876966e-14  1.4642471400062220e-14  1.6469582307159781e-14  1.8404208913220235e-14  2.0027038702860458e-14  2.0829868651794186e-14  2.0399572808877949e-14  1.8605227056468756e-14  1.5681072673805443e-14  1.2149209674484514e-14  8.6216865419713032e-15  5.5905002087749238e-15  3.3068229800094157e-15  1.7824248535143688e-15  8.7498818904963893e-16  3.9119344649469940e-16  1.5947397947343831e-16  5.9537611822347504e-17  2.0655371489545938e-17  6.9861208950308160e-18  2.6373771269206815e-18  1.3833864006933409e-18  1.0550486632975103e-18  9.7680985833020125e-19  9.5979187787735206e-19  9.5639859657281109e-19  9.5577453268647248e-19  9.5566771250152287e-19  9.5565047131571955e-19  9.5564779928557528e-19  9.5564739234735438e-19  9.5564732982759697e-19  9.5564731987340744e-19  9.5564731817811801e-19  9.5564731785192787e-19  9.5564731777420062e-19  9.5564731774963634e-19  9.5564731773986225e-19  9.5564731773551870e-19  9.5564731773354558e-19  9.5564731773267063e-19  9.5564731773230259e-19  9.5564731773215872e-19  9.5564731773210865e-19  9.5564731773209439e-19  9.5564731773209228e-19  6.8271731148114507e-15  6.9250294480285985e-15  7.1212904996931553e-15  7.3269732518739574e-15  7.5390246020599548e-15  7.7569971497719050e-15  7.9809469526911605e-15  8.2110161442178221e-15  8.4473919186654294e-15  8.6904386323522163e-15  8.9412949163293132e-15  9.2039858267950174e-15  9.4918576747301717e-15  9.8445791933766904e-15  1.0366807833953196e-14  1.1302368607496119e-14  1.3149008167142440e-14  1.6784947773470227e-14  2.3515448690299074e-14  3.4885524979959425e-14  5.2120846979568252e-14  7.5235242476360866e-14  1.0216165948250333e-13  1.2851967819816851e-13  1.4852217738786997e-13  1.5692898036279420e-13  1.5119105751663507e-13  1.3260276653401004e-13  1.0576385341468021e-13  7.6663019061731248e-14  5.0477164786485793e-14  3.0179898395802663e-14  1.6381216073591074e-14  8.0705203355621683e-15  3.6085888223617462e-15  1.4644163664215839e-15  5.3957290657656542e-16  1.8079455949344687e-16  5.5426621160673643e-17  1.5921829009904294e-17  4.6857863325470995e-18  1.7990550438711013e-18  1.1286778946550783e-18  9.8786767902163580e-19  9.6109667650056825e-19  9.5648544008726247e-19  9.5576482199448727e-19  9.5566240588403918e-19  9.5564910942882755e-19  9.5564751860471771e-19  9.5564733998913615e-19  9.5564732042864187e-19  9.5564731816277894e-19  9.5564731783936561e-19  9.5564731777087319e-19  9.5564731774875850e-19  9.5564731773957317e-19  9.5564731773539910e-19  9.5564731773348973e-19  9.5564731773264386e-19  9.5564731773228949e-19  9.5564731773215275e-19  9.5564731773210576e-19  9.5564731773209266e-19  9.5564731773209035e-19  6.8257031140379398e-15  6.9230905637356320e-15  7.1209393957419831e-15  7.3269279715822101e-15  7.5390234226756483e-15  7.7569906644520080e-15  7.9809255079273912e-15  8.2110806632095863e-15  8.4483023885130863e-15  8.6960973499701518e-15  8.9683941551546497e-15  9.3151228123550567e-15  9.8966030188331282e-15  1.1173470888732316e-14  1.4327161084900591e-14  2.2048371075798014e-14  3.9730197865729677e-14  7.6745360193002498e-14  1.4684398690644559e-13  2.6610183209413473e-13  4.4706308286800246e-13  6.8956450664434232e-13  9.7195881899682512e-13  1.2489718276560700e-12  1.4611843892418337e-12  1.5550352767059884e-12  1.5045564712230206e-12  1.3228946000327989e-12  1.0566866152773981e-12  7.6657345245917142e-13  5.0495089843511019e-13  3.0195860516199931e-13  1.6389823450991620e-13  8.0735398876852975e-14  3.6087639212875652e-14  1.4635542404052854e-14  5.3849840173448924e-15  1.7976671801484613e-15  5.4476458182619097e-16  1.5022331074861998e-16  3.8108522028723980e-17  9.3402774857594280e-18  2.6711845401259846e-18  1.2738511667457998e-18  1.0091496252241892e-18  9.6380170352506070e-19  9.5677396385857988e-19  9.5578846325171975e-19  9.5566336225130058e-19  9.5564897569316837e-19  9.5564747434882821e-19  9.5564733153289642e-19  9.5564731896923687e-19  9.5564731788682361e-19  9.5564731777191434e-19  9.5564731774824524e-19  9.5564731773932607e-19  9.5564731773528643e-19  9.5564731773343542e-19  9.5564731773261690e-19  9.5564731773227620e-19  9.5564731773214582e-19  9.5564731773210152e-19  9.5564731773208958e-19  9.5564731773208765e-19  6.8244364319840932e-15  6.9219668277244500e-15  7.1207173668979378e-15  7.3268846066243770e-15  7.5389838695146125e-15  7.7569445642723927e-15  7.9811908285199972e-15  8.2138046702553450e-15  8.4645142855096073e-15  8.7745753476683890e-15  9.3012885745046123e-15  1.0585189366407061e-14  1.4302230311121644e-14  2.5133976069206966e-14  5.4815442098822973e-14  1.2956988449757294e-13  3.0111522777026140e-13  6.5805261408142958e-13  1.3285796383615340e-12  2.4601973852877273e-12  4.1645738926695332e-12  6.4330570249876387e-12  9.0577752101158266e-12  1.1615313545310776e-11  1.3557211465602427e-11  1.4395087633829375e-11  1.3898665127883299e-11  1.2197890452089369e-11  9.7276847383849232e-12  7.0473496739255110e-12  4.6368940972129741e-12  2.7702526102344445e-12  1.5025135510675899e-12  7.3968800150505806e-13  3.3047686217780687e-13  1.3397778536238396e-13  4.9279517891290913e-14  1.6443470709479938e-14  4.9772500962145833e-15  1.3668551318643854e-15  3.4093648728551036e-16  7.7685046595882193e-17  1.6655280715859068e-17  3.8676123202802343e-18  1.4452008170646971e-18  1.0302372573110660e-18  9.6594588181052349e-19  9.5693569905477607e-19  9.5579335109363489e-19  9.5566231489868263e-19  9.5564871368488436e-19  9.5564743572200208e-19  9.5564732688251863e-19  9.5564731842687651e-19  9.5564731780413997e-19  9.5564731774957606e-19  9.5564731773918971e-19  9.5564731773518243e-19  9.5564731773338207e-19  9.5564731773258994e-19  9.5564731773226234e-19  9.5564731773213792e-19  9.5564731773209632e-19  9.5564731773208496e-19  9.5564731773208284e-19  6.8235527174518165e-15  6.9212920770564142e-15  7.1205462455955971e-15  7.3267916356432023e-15  7.5389415936021155e-15  7.7577519972273771e-15  7.9880966271946540e-15  8.2543545274917833e-15  8.6651717070986256e-15  9.6564399548707905e-15  1.2813124577859057e-14  2.3373569573255053e-14  5.7068665442469517e-14  1.5669800802785276e-13  4.2722186661749889e-13  1.0989067865377955e-12  2.6187553482118623e-12  5.7417658665655835e-12  1.1545313027371173e-11  2.1248734039738445e-11  3.5745164567903705e-11  5.4899588004184100e-11  7.6909228812733932e-11  9.8196550105292770e-11  1.1418872265480898e-10  1.2086552032010651e-10  1.1638921117387801e-10  1.0192092792666617e-10  8.1131459443082647e-11  5.8687686604167745e-11  3.8566570969530970e-11  2.3018178509660061e-11  1.2474660394392061e-11  6.1375705421065094e-12  2.7409093550963239e-12  1.1108371210092190e-12  4.0850389424521457e-13  1.3629171398059634e-13  4.1248976070882196e-14  1.1323575825392790e-14  2.8196048622361546e-15  6.3720800831021805e-16  1.3116928261008879e-16  2.5113957476404784e-17  5.0182434299543242e-18  1.5748190299902898e-18  1.0411601996936539e-18  9.6634788826867061e-19  9.5686036929668701e-19  9.5577188186202138e-19  9.5565890298827522e-19  9.5564829371688072e-19  9.5564739228291237e-19  9.5564732293661539e-19  9.5564731808466977e-19  9.5564731776500314e-19  9.5564731773978694e-19  9.5564731773511464e-19  9.5564731773332988e-19  9.5564731773256182e-19  9.5564731773224674e-19  9.5564731773212752e-19  9.5564731773208804e-19  9.5564731773207706e-19  9.5564731773207514e-19  6.8229518887905845e-15  6.9208342449815944e-15  7.1203546795803636e-15  7.3268196234691455e-15  7.5409224596864529e-15  7.7733687506203545e-15  8.0808607170704861e-15  8.7266197341331190e-15  1.0808986646679334e-14  1.8494993981811646e-14  4.6243441833476530e-14  1.4001282110954854e-13  4.3342100735166554e-13  1.2803802927636881e-12  3.5296631965112704e-12  9.0087997021951564e-12  2.1208985705181621e-11  4.5942928471709912e-11  9.1389672729163185e-11  1.6665088118857761e-10  2.7816149467057521e-10  4.2442128268580921e-10  5.9131270887206486e-10  7.5151134727503487e-10  8.7054490548094546e-10  9.1849234002322452e-10  8.8211399093768890e-10  7.7074822439761368e-10  6.1241320083774841e-10  4.4233647639993413e-10  2.9032951665440613e-10  1.7311396746833858e-10  9.3748168272972822e-11  4.6098079830455676e-11  2.0577939370722712e-11  8.3375353522155445e-12  3.0655931072472200e-12  1.0227319128632178e-12  3.0953754357166999e-13  8.4978148974798967e-14  2.1158777677338851e-14  4.7779810674085708e-15  9.7887458983349753e-16  1.8244366546973010e-16  3.1486146817757188e-17  5.6104515581894450e-18  1.5987652034191788e-18  1.0361556256269337e-18  9.6477772488603024e-19  9.5658526098419675e-19  9.5573458230574184e-19  9.5565466996837519e-19  9.5564787867379811e-19  9.5564735652168048e-19  9.5564732018285797e-19  9.5564731788329126e-19  9.5564731774565622e-19  9.5564731773529202e-19  9.5564731773328693e-19  9.5564731773253158e-19  9.5564731773222748e-19  9.5564731773211327e-19  9.5564731773207610e-19  9.5564731773206570e-19  9.5564731773206377e-19  6.8224744488254041e-15  6.9204957231026471e-15  7.1205826897620888e-15  7.3309955019812757e-15  7.5733828548717899e-15  7.9733453059438288e-15  9.1351321619181186e-15  1.3651397962898574e-14  3.1633625069408038e-14  9.9305349368687529e-14  3.3643256227114327e-13  1.1086677941667564e-12  3.4441513698975271e-12  9.9918846538146047e-12  2.6961125779818341e-11  6.7468151004835090e-11  1.5616416927796084e-10  3.3350029077498043e-10  6.5559073108258416e-10  1.1838056645290365e-09  1.9599130284160204e-09  2.9703441298646326e-09  4.1152327117444846e-09  5.2058571264879821e-09  6.0071661645001325e-09  6.3177354969991409e-09  6.0514254201176610e-09  5.2758765670414616e-09  4.1845323634872417e-09  3.0180130429401394e-09  1.9785635089069453e-09  1.1786587513124477e-09  6.3783405293362645e-10  3.1346983061311586e-10  1.3987851741042239e-10  5.6660701304999327e-11  2.0830740495225951e-11  6.9493098964216134e-12  2.1033915586509692e-12  5.7752564921235541e-13  1.4382359554195623e-13  3.2481687369843226e-14  6.6522070960426349e-15  1.2357594081625464e-15  2.0875678612439081e-16  3.2650716722175639e-17  5.3365883200679288e-18  1.5043190532460825e-18  1.0179008654262771e-18  9.6204551996855136e-19  9.5624288301739717e-19  9.5569751887689307e-19  9.5565114908595994e-19  9.5564758248491159e-19  9.5564733431338979e-19  9.5564731868265484e-19  9.5564731778641120e-19  9.5564731773708409e-19  9.5564731773330792e-19  9.5564731773249961e-19  9.5564731773220340e-19  9.5564731773209382e-19  9.5564731773205838e-19  9.5564731773204856e-19  9.5564731773204625e-19  6.8223087668416869e-15  6.9211812891762075e-15  7.1280586656389603e-15  7.3931672395201500e-15  7.9863659395893241e-15  1.0254050646125912e-14  2.0079598854916464e-14  6.0727488458023921e-14  2.1685284204239120e-13  7.7444766787322971e-13  2.6335621369402572e-12  8.4311603565406605e-12  2.5332661831767244e-11  7.1285768794350919e-11  1.8738974264709970e-10  4.5879085547105305e-10  1.0428935468395652e-09  2.1942195906250271e-09  4.2607851361487236e-09  7.6164725870969869e-09  1.2505460197927939e-08  1.8823113077882256e-08  2.5931002428006006e-08  3.2650045468524948e-08  3.7530135720476616e-08  3.9344446008498402e-08  3.7586808072821596e-08  3.2698903823681598e-08  2.5889241307421035e-08  1.8645500218403624e-08  1.2209795900475263e-08  7.2670609036378711e-09  3.9299076249259163e-09  1.9304257221664984e-09  8.6111061044930596e-10  3.4873776026685072e-10  1.2819803112861316e-10  4.2768253333440244e-11  1.2946150827667368e-11  3.5552044291818194e-12  8.8556957892146092e-13  2.0005427208813205e-13  4.0980659652171815e-14  7.6116881616920033e-15  1.2822665869416903e-15  1.9647479109225086e-16  2.7993176908342760e-17  4.3434941021883605e-18  1.3402348166744459e-18  9.9519456119199116e-19  9.5933048304078275e-19  9.5595794800402633e-19  9.5567103790354213e-19  9.5564895750981762e-19  9.5564742035778598e-19  9.5564732355515090e-19  9.5564731803591273e-19  9.5564731774855166e-19  9.5564731773373009e-19  9.5564731773247650e-19  9.5564731773217278e-19  9.5564731773206724e-19  9.5564731773203334e-19  9.5564731773202371e-19  9.5564731773202179e-19  6.8246111394703667e-15  6.9303660310353324e-15  7.2338497684117743e-15  8.2160093377553887e-15  1.2841721872173438e-14  3.4200937891680976e-14  1.2416942052987690e-13  4.7180308398814426e-13  1.7192017181381408e-12  5.9124182431098874e-12  1.9180268303432268e-11  5.8749698888011524e-11  1.6984276946374738e-10  4.6253806694442503e-10  1.1830214707914384e-09  2.8313861164086520e-09  6.3168028889076160e-09  1.3087705638122033e-08  2.5095776792548195e-08  4.4399493911928040e-08  7.2283964024124533e-08  1.0804600064835391e-07  1.4799535765444886e-07  1.8546579024153505e-07  2.1236026002269201e-07  2.2191616586446912e-07  2.1144735966074606e-07  1.8355638937161015e-07  1.4507753908453142e-07  1.0433917381146549e-07  6.8249566033968238e-08  4.0585935122592851e-08  2.1933909286022364e-08  1.0769174726206091e-08  4.8023253641740542e-09  1.9445237480648215e-09  7.1477208595087667e-10  2.3846416243240493e-10  7.2193006713284746e-11  1.9829155733338618e-11  4.9405491920268787e-12  1.1164424396937971e-12  2.2878046164261798e-13  4.2507012910525460e-14  7.1602550315009872e-15  1.0939311582042524e-15  1.5217422488378385e-16  1.9913509724481515e-17  3.1089130065439435e-18  1.1771934100641030e-18  9.7629267907078238e-19  9.5738954955868716e-19  9.5578043891166213e-19  9.5565652603658924e-19  9.5564789429747260e-19  9.5564735041373310e-19  9.5564731941304316e-19  9.5564731781233750e-19  9.5564731773634049e-19  9.5564731773252792e-19  9.5564731773213542e-19  9.5564731773203026e-19  9.5564731773199752e-19  9.5564731773198808e-19  9.5564731773198635e-19  6.8194892480133130e-15  7.0708645142328011e-15  8.8242207650323199e-15  1.8524245643008071e-14  6.5088773207867679e-14  2.6225978752396715e-13  1.0206278400746346e-12  3.7241457169651294e-12  1.2771025497964508e-11  4.1401481675625733e-11  1.2739646394713829e-10  3.7267221539042967e-10  1.0356898188251227e-09  2.7277686727227002e-09  6.7838907914556847e-09  1.5862529381460702e-08  3.4715844954749003e-08  7.0801607028842575e-08  1.3401986826439295e-07  2.3461468443610903e-07  3.7867037463571794e-07  5.6201760210797328e-07  7.6535943538719986e-07  9.5457566735159011e-07  1.0887314294231658e-06  1.1340806710684192e-06  1.0777520902032609e-06  9.3359719519180991e-07  7.3661609352930846e-07  5.2904065644727419e-07  3.4567574833847319e-07  2.0539021096425991e-07  1.1092960223836393e-07  5.4440228980241276e-08  2.4269619962450553e-08  9.8255500216573572e-09  3.6115510032725134e-09  1.2049674012843309e-09  3.6484708653862581e-10  1.0023422749342512e-10  2.4981081419882987e-11  5.6470386178220095e-12  1.1576360691554088e-12  2.1517690981812208e-13  3.6260134765218810e-14  5.5392582134357743e-15  7.6761582644250849e-16  9.7123539165038043e-17  1.1884934229257736e-17  2.0808262838416267e-18  1.0605659690000009e-18  9.6450699776975367e-19  9.5632472550802894e-19  9.5569420787258989e-19  9.5565025569596349e-19  9.5564748434131062e-19  9.5564732628619352e-19  9.5564731813136163e-19  9.5564731774966138e-19  9.5564731773297281e-19  9.5564731773209728e-19  9.5564731773197884e-19  9.5564731773194706e-19  9.5564731773193820e-19  9.5564731773193608e-19  6.7991316980973545e-15  1.0108590644440005e-14  3.0983189416069921e-14  1.3325472444852301e-13  5.6389801247513310e-13  2.1985489182950225e-12  7.9393622056299018e-12  2.6884028318143648e-11  8.6189585397974960e-11  2.6328089617084929e-10  7.6892931268511251e-10  2.1491936051437168e-09  5.7422438108931318e-09  1.4623435378168673e-08  3.5349428763152067e-08  8.0717621695889126e-08  1.7321609019796731e-07  3.4760095681134172e-07  6.4931068668285116e-07  1.1244317185004546e-06  1.7988461073329793e-06  2.6505720044767921e-06  3.5882660520769044e-06  4.4537558218753147e-06  5.0596019113578956e-06  5.2533198359494733e-06  4.9792427245652472e-06  4.3040253104910075e-06  3.3900661775550293e-06  2.4314184945833597e-06  1.5869808492058293e-06  9.4215773422851610e-07  5.0854025525966557e-07  2.4946596565549503e-07  1.1118239347904674e-07  4.5005986300972228e-08  1.6542385874031680e-08  5.5196864788713059e-09  1.6715623287472621e-09  4.5933882823214230e-10  1.1451497975878134e-10  2.5895876979883420e-11  5.3108287961184938e-12  9.8760762628588448e-13  1.6650505569185942e-13  2.5446718040783328e-14  3.5253720014348886e-15  4.4331220563090955e-16  5.1259819653223903e-17  6.1378545216864898e-18  1.4391932620857769e-18  9.9650801730464233e-19  9.5877376881841572e-19  9.5586389248673955e-19  9.5566089796606293e-19  9.5564808843479342e-19  9.5564735731622982e-19  9.5564731957336874e-19  9.5564731781019259e-19  9.5564731773519533e-19  9.5564731773210152e-19  9.5564731773190989e-19  9.5564731773187657e-19  9.5564731773186791e-19  9.5564731773186579e-19  1.2109332806957843e-14  5.9179518450907698e-14  2.8610678989553797e-13  1.2254902759984759e-12  4.7168334897909080e-12  1.6717206121221126e-11  5.5516127977985047e-11  1.7476758534048654e-10  5.2555521352699293e-10  1.5169908274599082e-09  4.2134529613515293e-09  1.1265846675491292e-08  2.8954064072192906e-08  7.1301723429818729e-08  1.6749376075582828e-07  3.7334822902188794e-07  7.8526053109603416e-07  1.5499055370732390e-06  2.8560410417159440e-06  4.8911137165301290e-06  7.7538577086619494e-06  1.1340656390437563e-05  1.5259847611924666e-05  1.8847000455883779e-05  2.1324446395856956e-05  2.2068122556054863e-05  2.0860883757304764e-05  1.7993022705452175e-05  1.4147593326832588e-05  1.0132916453603883e-05  6.6065948525282461e-06  3.9189680309953556e-06  2.1140238882823481e-06  1.0366040392955756e-06  4.6187424008746920e-07  1.8694056637933428e-07  6.8711307820859286e-08  2.2929025407106422e-08  6.9450169365784543e-09  1.9089601456470063e-09  4.7606705970934034e-10  1.0769712901058103e-10  2.2096624806796959e-11  4.1110992142577508e-12  6.9346951160054003e-13  1.0603893965295050e-13  1.4696719689347832e-14  1.8466092971614848e-15  2.1097901494097369e-16  2.26065964525