<?xml version="1.0"?>
<VTKFile type="UnstructuredGrid"  version="0.1"  >
<UnstructuredGrid>
<Piece  NumberOfPoints="4225" NumberOfCells="8192">
<Points>
<DataArray  type="Float64"  NumberOfComponents="3"  format="ascii">0 0 0  0.015625 0 0  0.03125 0 0  0.046875 0 0  0.0625 0 0  0.078125 0 0  0.09375 0 0  0.109375 0 0  0.125 0 0  0.140625 0 0  0.15625 0 0  0.171875 0 0  0.1875 0 0  0.203125 0 0  0.21875 0 0  0.234375 0 0  0.25 0 0  0.265625 0 0  0.28125 0 0  0.296875 0 0  0.3125 0 0  0.328125 0 0  0.34375 0 0  0.359375 0 0  0.375 0 0  0.390625 0 0  0.40625 0 0  0.421875 0 0  0.4375 0 0  0.453125 0 0  0.46875 0 0  0.484375 0 0  0.5 0 0  0.515625 0 0  0.53125 0 0  0.546875 0 0  0.5625 0 0  0.578125 0 0  0.59375 0 0  0.609375 0 0  0.625 0 0  0.640625 0 0  0.65625 0 0  0.671875 0 0  0.6875 0 0  0.703125 0 0  0.71875 0 0  0.734375 0 0  0.75 0 0  0.765625 0 0  0.78125 0 0  0.796875 0 0  0.8125 0 0  0.828125 0 0  0.84375 0 0  0.859375 0 0  0.875 0 0  0.890625 0 0  0.90625 0 0  0.921875 0 0  0.9375 0 0  0.953125 0 0  0.96875 0 0  0.984375 0 0  1 0 0  0 0.015625 0  0.015625 0.015625 0  0.03125 0.015625 0  0.046875 0.015625 0  0.0625 0.015625 0  0.078125 0.015625 0  0.09375 0.015625 0  0.109375 0.015625 0  0.125 0.015625 0  0.140625 0.015625 0  0.15625 0.015625 0  0.171875 0.015625 0  0.1875 0.015625 0  0.203125 0.015625 0  0.21875 0.015625 0  0.234375 0.015625 0  0.25 0.015625 0  0.265625 0.015625 0  0.28125 0.015625 0  0.296875 0.015625 0  0.3125 0.015625 0  0.328125 0.015625 0  0.34375 0.015625 0  0.359375 0.015625 0  0.375 0.015625 0  0.390625 0.015625 0  0.40625 0.015625 0  0.421875 0.015625 0  0.4375 0.015625 0  0.453125 0.015625 0  0.46875 0.015625 0  0.484375 0.015625 0  0.5 0.015625 0  0.515625 0.015625 0  0.53125 0.015625 0  0.546875 0.015625 0  0.5625 0.015625 0  0.578125 0.015625 0  0.59375 0.015625 0  0.609375 0.015625 0  0.625 0.015625 0  0.640625 0.015625 0  0.65625 0.015625 0  0.671875 0.015625 0  0.6875 0.015625 0  0.703125 0.015625 0  0.71875 0.015625 0  0.734375 0.015625 0  0.75 0.015625 0  0.765625 0.015625 0  0.78125 0.015625 0  0.796875 0.015625 0  0.8125 0.015625 0  0.828125 0.015625 0  0.84375 0.015625 0  0.859375 0.015625 0  0.875 0.015625 0  0.890625 0.015625 0  0.90625 0.015625 0  0.921875 0.015625 0  0.9375 0.015625 0  0.953125 0.015625 0  0.96875 0.015625 0  0.984375 0.015625 0  1 0.015625 0  0 0.03125 0  0.015625 0.03125 0  0.03125 0.03125 0  0.046875 0.03125 0  0.0625 0.03125 0  0.078125 0.03125 0  0.09375 0.03125 0  0.109375 0.03125 0  0.125 0.03125 0  0.140625 0.03125 0  0.15625 0.03125 0  0.171875 0.03125 0  0.1875 0.03125 0  0.203125 0.03125 0  0.21875 0.03125 0  0.234375 0.03125 0  0.25 0.03125 0  0.265625 0.03125 0  0.28125 0.03125 0  0.296875 0.03125 0  0.3125 0.03125 0  0.328125 0.03125 0  0.34375 0.03125 0  0.359375 0.03125 0  0.375 0.03125 0  0.390625 0.03125 0  0.40625 0.03125 0  0.421875 0.03125 0  0.4375 0.03125 0  0.453125 0.03125 0  0.46875 0.03125 0  0.484375 0.03125 0  0.5 0.03125 0  0.515625 0.03125 0  0.53125 0.03125 0  0.546875 0.03125 0  0.5625 0.03125 0  0.578125 0.03125 0  0.59375 0.03125 0  0.609375 0.03125 0  0.625 0.03125 0  0.640625 0.03125 0  0.65625 0.03125 0  0.671875 0.03125 0  0.6875 0.03125 0  0.703125 0.03125 0  0.71875 0.03125 0  0.734375 0.03125 0  0.75 0.03125 0  0.765625 0.03125 0  0.78125 0.03125 0  0.796875 0.03125 0  0.8125 0.03125 0  0.828125 0.03125 0  0.84375 0.03125 0  0.859375 0.03125 0  0.875 0.03125 0  0.890625 0.03125 0  0.90625 0.03125 0  0.921875 0.03125 0  0.9375 0.03125 0  0.953125 0.03125 0  0.96875 0.03125 0  0.984375 0.03125 0  1 0.03125 0  0 0.046875 0  0.015625 0.046875 0  0.03125 0.046875 0  0.046875 0.046875 0  0.0625 0.046875 0  0.078125 0.046875 0  0.09375 0.046875 0  0.109375 0.046875 0  0.125 0.046875 0  0.140625 0.046875 0  0.15625 0.046875 0  0.171875 0.046875 0  0.1875 0.046875 0  0.203125 0.046875 0  0.21875 0.046875 0  0.234375 0.046875 0  0.25 0.046875 0  0.265625 0.046875 0  0.28125 0.046875 0  0.296875 0.046875 0  0.3125 0.046875 0  0.328125 0.046875 0  0.34375 0.046875 0  0.359375 0.046875 0  0.375 0.046875 0  0.390625 0.046875 0  0.40625 0.046875 0  0.421875 0.046875 0  0.4375 0.046875 0  0.453125 0.046875 0  0.46875 0.046875 0  0.484375 0.046875 0  0.5 0.046875 0  0.515625 0.046875 0  0.53125 0.046875 0  0.546875 0.046875 0  0.5625 0.046875 0  0.578125 0.046875 0  0.59375 0.046875 0  0.609375 0.046875 0  0.625 0.046875 0  0.640625 0.046875 0  0.65625 0.046875 0  0.671875 0.046875 0  0.6875 0.046875 0  0.703125 0.046875 0  0.71875 0.046875 0  0.734375 0.046875 0  0.75 0.046875 0  0.765625 0.046875 0  0.78125 0.046875 0  0.796875 0.046875 0  0.8125 0.046875 0  0.828125 0.046875 0  0.84375 0.046875 0  0.859375 0.046875 0  0.875 0.046875 0  0.890625 0.046875 0  0.90625 0.046875 0  0.921875 0.046875 0  0.9375 0.046875 0  0.953125 0.046875 0  0.96875 0.046875 0  0.984375 0.046875 0  1 0.046875 0  0 0.0625 0  0.015625 0.0625 0  0.03125 0.0625 0  0.046875 0.0625 0  0.0625 0.0625 0  0.078125 0.0625 0  0.09375 0.0625 0  0.109375 0.0625 0  0.125 0.0625 0  0.140625 0.0625 0  0.15625 0.0625 0  0.171875 0.0625 0  0.1875 0.0625 0  0.203125 0.0625 0  0.21875 0.0625 0  0.234375 0.0625 0  0.25 0.0625 0  0.265625 0.0625 0  0.28125 0.0625 0  0.296875 0.0625 0  0.3125 0.0625 0  0.328125 0.0625 0  0.34375 0.0625 0  0.359375 0.0625 0  0.375 0.0625 0  0.390625 0.0625 0  0.40625 0.0625 0  0.421875 0.0625 0  0.4375 0.0625 0  0.453125 0.0625 0  0.46875 0.0625 0  0.484375 0.0625 0  0.5 0.0625 0  0.515625 0.0625 0  0.53125 0.0625 0  0.546875 0.0625 0  0.5625 0.0625 0  0.578125 0.0625 0  0.59375 0.0625 0  0.609375 0.0625 0  0.625 0.0625 0  0.640625 0.0625 0  0.65625 0.0625 0  0.671875 0.0625 0  0.6875 0.0625 0  0.703125 0.0625 0  0.71875 0.0625 0  0.734375 0.0625 0  0.75 0.0625 0  0.765625 0.0625 0  0.78125 0.0625 0  0.796875 0.0625 0  0.8125 0.0625 0  0.828125 0.0625 0  0.84375 0.0625 0  0.859375 0.0625 0  0.875 0.0625 0  0.890625 0.0625 0  0.90625 0.0625 0  0.921875 0.0625 0  0.9375 0.0625 0  0.953125 0.0625 0  0.96875 0.0625 0  0.984375 0.0625 0  1 0.0625 0  0 0.078125 0  0.015625 0.078125 0  0.03125 0.078125 0  0.046875 0.078125 0  0.0625 0.078125 0  0.078125 0.078125 0  0.09375 0.078125 0  0.109375 0.078125 0  0.125 0.078125 0  0.140625 0.078125 0  0.15625 0.078125 0  0.171875 0.078125 0  0.1875 0.078125 0  0.203125 0.078125 0  0.21875 0.078125 0  0.234375 0.078125 0  0.25 0.078125 0  0.265625 0.078125 0  0.28125 0.078125 0  0.296875 0.078125 0  0.3125 0.078125 0  0.328125 0.078125 0  0.34375 0.078125 0  0.359375 0.078125 0  0.375 0.078125 0  0.390625 0.078125 0  0.40625 0.078125 0  0.421875 0.078125 0  0.4375 0.078125 0  0.453125 0.078125 0  0.46875 0.078125 0  0.484375 0.078125 0  0.5 0.078125 0  0.515625 0.078125 0  0.53125 0.078125 0  0.546875 0.078125 0  0.5625 0.078125 0  0.578125 0.078125 0  0.59375 0.078125 0  0.609375 0.078125 0  0.625 0.078125 0  0.640625 0.078125 0  0.65625 0.078125 0  0.671875 0.078125 0  0.6875 0.078125 0  0.703125 0.078125 0  0.71875 0.078125 0  0.734375 0.078125 0  0.75 0.078125 0  0.765625 0.078125 0  0.78125 0.078125 0  0.796875 0.078125 0  0.8125 0.078125 0  0.828125 0.078125 0  0.84375 0.078125 0  0.859375 0.078125 0  0.875 0.078125 0  0.890625 0.078125 0  0.90625 0.078125 0  0.921875 0.078125 0  0.9375 0.078125 0  0.953125 0.078125 0  0.96875 0.078125 0  0.984375 0.078125 0  1 0.078125 0  0 0.09375 0  0.015625 0.09375 0  0.03125 0.09375 0  0.046875 0.09375 0  0.0625 0.09375 0  0.078125 0.09375 0  0.09375 0.09375 0  0.109375 0.09375 0  0.125 0.09375 0  0.140625 0.09375 0  0.15625 0.09375 0  0.171875 0.09375 0  0.1875 0.09375 0  0.203125 0.09375 0  0.21875 0.09375 0  0.234375 0.09375 0  0.25 0.09375 0  0.265625 0.09375 0  0.28125 0.09375 0  0.296875 0.09375 0  0.3125 0.09375 0  0.328125 0.09375 0  0.34375 0.09375 0  0.359375 0.09375 0  0.375 0.09375 0  0.390625 0.09375 0  0.40625 0.09375 0  0.421875 0.09375 0  0.4375 0.09375 0  0.453125 0.09375 0  0.46875 0.09375 0  0.484375 0.09375 0  0.5 0.09375 0  0.515625 0.09375 0  0.53125 0.09375 0  0.546875 0.09375 0  0.5625 0.09375 0  0.578125 0.09375 0  0.59375 0.09375 0  0.609375 0.09375 0  0.625 0.09375 0  0.640625 0.09375 0  0.65625 0.09375 0  0.671875 0.09375 0  0.6875 0.09375 0  0.703125 0.09375 0  0.71875 0.09375 0  0.734375 0.09375 0  0.75 0.09375 0  0.765625 0.09375 0  0.78125 0.09375 0  0.796875 0.09375 0  0.8125 0.09375 0  0.828125 0.09375 0  0.84375 0.09375 0  0.859375 0.09375 0  0.875 0.09375 0  0.890625 0.09375 0  0.90625 0.09375 0  0.921875 0.09375 0  0.9375 0.09375 0  0.953125 0.09375 0  0.96875 0.09375 0  0.984375 0.09375 0  1 0.09375 0  0 0.109375 0  0.015625 0.109375 0  0.03125 0.109375 0  0.046875 0.109375 0  0.0625 0.109375 0  0.078125 0.109375 0  0.09375 0.109375 0  0.109375 0.109375 0  0.125 0.109375 0  0.140625 0.109375 0  0.15625 0.109375 0  0.171875 0.109375 0  0.1875 0.109375 0  0.203125 0.109375 0  0.21875 0.109375 0  0.234375 0.109375 0  0.25 0.109375 0  0.265625 0.109375 0  0.28125 0.109375 0  0.296875 0.109375 0  0.3125 0.109375 0  0.328125 0.109375 0  0.34375 0.109375 0  0.359375 0.109375 0  0.375 0.109375 0  0.390625 0.109375 0  0.40625 0.109375 0  0.421875 0.109375 0  0.4375 0.109375 0  0.453125 0.109375 0  0.46875 0.109375 0  0.484375 0.109375 0  0.5 0.109375 0  0.515625 0.109375 0  0.53125 0.109375 0  0.546875 0.109375 0  0.5625 0.109375 0  0.578125 0.109375 0  0.59375 0.109375 0  0.609375 0.109375 0  0.625 0.109375 0  0.640625 0.109375 0  0.65625 0.109375 0  0.671875 0.109375 0  0.6875 0.109375 0  0.703125 0.109375 0  0.71875 0.109375 0  0.734375 0.109375 0  0.75 0.109375 0  0.765625 0.109375 0  0.78125 0.109375 0  0.796875 0.109375 0  0.8125 0.109375 0  0.828125 0.109375 0  0.84375 0.109375 0  0.859375 0.109375 0  0.875 0.109375 0  0.890625 0.109375 0  0.90625 0.109375 0  0.921875 0.109375 0  0.9375 0.109375 0  0.953125 0.109375 0  0.96875 0.109375 0  0.984375 0.109375 0  1 0.109375 0  0 0.125 0  0.015625 0.125 0  0.03125 0.125 0  0.046875 0.125 0  0.0625 0.125 0  0.078125 0.125 0  0.09375 0.125 0  0.109375 0.125 0  0.125 0.12
[...]
<PointData  Scalars="f_14444"> 
<DataArray  type="Float64"  Name="f_14444"  format="ascii">8.2594879330900171e-20  8.3686197165245169e-20  8.4651292870676971e-20  8.5603809468861344e-20  8.6991522620973650e-20  8.8473304372315375e-20  8.5970834757164271e-20  8.2101622525388028e-20  1.1170399046097922e-19  1.6656023767145294e-19  -7.2728385905126829e-21  -4.8772267478607450e-19  2.7257157451696494e-19  3.9231846364283019e-18  3.8113311858662567e-18  -1.3045080209476447e-17  -2.4018816210647631e-17  6.4202877472325034e-17  2.9759381049469997e-16  4.4732955705267484e-16  2.1218183522039526e-16  3.0958726807638858e-16  3.4707526834324980e-15  1.2983569402632337e-14  2.8322601907450089e-14  4.2988233928012704e-14  5.3360148552912108e-14  8.1843705995561373e-14  2.0287539631228995e-13  5.4766034608878321e-13  1.2686726215839666e-12  2.4770630627263188e-12  4.2209833710480792e-12  6.6351443892142588e-12  1.0443022424749321e-11  1.8018579587240381e-11  3.5207895303522009e-11  7.4074569782344105e-11  1.5667368239508406e-10  3.1988751424015159e-10  6.2128206836993531e-10  1.1458746586708454e-09  2.0136449987389173e-09  3.3875778593618004e-09  5.4819965136691882e-09  8.5709267644912317e-09  1.2996240254934575e-08  1.9175284987712314e-08  2.7607885159653645e-08  3.8882091549964943e-08  5.3679680916595646e-08  7.2777870905998203e-08  9.7055834157229100e-08  1.2748546029588455e-07  1.6514775953345501e-07  2.1121008110481715e-07  2.6690185033685026e-07  3.3372999200335577e-07  4.1255934380153895e-07  5.0646026146021533e-07  6.1304674553663333e-07  7.4278054697569975e-07  8.7803309977637981e-07  1.0679858707534864e-06  1.2143036500426099e-06  8.7645196940418461e-20  8.8401251500137060e-20  8.9308297884149817e-20  9.0377388715748179e-20  9.1681816231077161e-20  9.2152203540385735e-20  9.0765331771341408e-20  9.7655359328647909e-20  1.2465169939700373e-19  9.4721888705468457e-20  -1.0314783688515894e-19  7.7822222733414306e-20  1.9742979131872885e-18  4.2451877662514358e-18  1.8665908085173207e-18  9.1829676873821345e-18  9.9690445630887582e-17  3.7809802704145116e-16  8.7115452341197561e-16  1.6843938070634342e-15  3.8870872682098627e-15  1.0617701644389401e-14  2.6616784333572452e-14  5.5670960785976465e-14  1.0043866147164784e-13  1.7299853535377192e-13  3.1961876118430128e-13  6.4946076580288602e-13  1.3468509770013849e-12  2.6582922011849165e-12  4.8871328869432025e-12  8.4920818563720463e-12  1.4449301490468577e-11  2.5079599806162134e-11  4.5549114101140252e-11  8.6222540284314145e-11  1.6599037427940221e-10  3.1661819446249174e-10  5.8808922886287043e-10  1.0548412247407302e-09  1.8227412470319811e-09  3.0366002510333869e-09  4.8880032056060403e-09  7.6232183093756422e-09  1.1550948675273911e-08  1.7049695659562622e-08  2.4574525598909913e-08  3.4663018279691103e-08  4.7940308576729497e-08  6.5122777273645778e-08  8.7021171407017099e-08  1.1454037124604550e-07  1.4868303842413660e-07  1.9053876678913116e-07  2.4129964693781557e-07  3.0222534733537326e-07  3.7465721588286244e-07  4.6010970936617045e-07  5.5966428328113473e-07  6.7611843343782003e-07  8.0765093443636153e-07  9.6395399082157110e-07  1.1288588607485490e-06  1.3432806731053605e-06  1.5079296543648186e-06  1.0376740145045248e-19  1.0488004493904197e-19  1.0608669867975664e-19  1.0748700243969512e-19  1.0860887194157866e-19  1.0844761088844522e-19  1.1225984864352554e-19  1.3190539639627760e-19  1.2516016772935472e-19  5.9013598130127558e-22  2.1217768212527382e-19  2.4299568384441061e-18  7.6760156760635335e-18  1.7953137584114328e-17  7.1566329835746222e-17  3.3005081395490022e-16  1.1553297239933321e-15  3.2075747928276018e-15  8.1486317851504670e-15  2.0872946854408535e-14  5.2812594127665549e-14  1.2375275445968922e-13  2.6210223718660810e-13  5.1351406091963259e-13  9.7545374373281095e-13  1.8645314662694814e-12  3.5961195493903658e-12  6.8463474382055798e-12  1.2618583614745985e-11  2.2459192534152493e-11  3.9116664497816592e-11  6.8042327423857593e-11  1.2013514584771387e-10  2.1602791545349636e-10  3.9202950707943131e-10  7.0762918134047837e-10  1.2542823628797223e-09  2.1650638559260406e-09  3.6247060052463016e-09  5.8795318009132769e-09  9.2468330278381925e-09  1.4123314363426614e-08  2.0992309671786509e-08  3.0429563396472477e-08  4.3107449659392218e-08  5.9797565946141322e-08  8.1371699292294674e-08  1.0880116523305888e-07  1.4315467713182152e-07  1.8559445532687679e-07  2.3737184516899460e-07  2.9981883336211087e-07  3.7434629506040400e-07  4.6242009327112582e-07  5.6558637291484423e-07  6.8539109938298641e-07  8.2347147191899654e-07  9.8150970009896678e-07  1.1607124153979714e-06  1.3643928608912152e-06  1.5890638086372597e-06  1.8495977868620409e-06  2.1166319723043276e-06  2.4581996140841715e-06  2.7295630241702966e-06  1.3934569797999632e-19  1.4121763038683608e-19  1.4318570981977820e-19  1.4512464848835812e-19  1.4632376951994884e-19  1.4880453063221647e-19  1.6246834355768309e-19  1.7488517899702648e-19  1.3413073181744534e-19  4.4431622710432813e-19  3.3728193928119298e-18  1.4682910479129418e-17  5.4459106631820667e-17  2.2725475283654155e-16  9.4910226417208492e-16  3.4441220900878634e-15  1.0875854745077876e-14  3.1520619412505941e-14  8.6630091248868559e-14  2.2459092319260419e-13  5.3993029101230649e-13  1.1993060292135863e-12  2.4949389511706093e-12  4.9649215139753819e-12  9.6075481513923642e-12  1.8175189524422240e-11  3.3539200260850190e-11  6.0272780142671948e-11  1.0591372510689869e-10  1.8370607410355270e-10  3.1777301170059416e-10  5.5151218004877065e-10  9.5955245277447732e-10  1.6630149607209739e-09  2.8472594219695243e-09  4.7809025265751743e-09  7.8347245774653306e-09  1.2499122301430697e-08  1.9398967002221268e-08  2.9305021077818558e-08  4.3141390296157223e-08  6.1988796789262205e-08  8.7083718590053829e-08  1.1981364130407759e-07  1.6170880477706158e-07  2.1443090461718036e-07  2.7975925082242028e-07  3.5957484121075362e-07  4.5584293996857059e-07  5.7059412228833907e-07  7.0590575022953395e-07  8.6387902245321242e-07  1.0466277635075814e-06  1.2562337415209340e-06  1.4947888498752232e-06  1.7642365550094149e-06  2.0666146788932195e-06  2.4037020280730804e-06  2.7768839349131519e-06  3.1898536959898169e-06  3.6366424100809407e-06  4.1401211172399897e-06  4.6473143103726809e-06  5.2812009130961583e-06  5.7853904639478235e-06  2.0872007883893926e-19  2.1185852528726196e-19  2.1505109134026288e-19  2.1795547636635131e-19  2.2110385308697782e-19  2.3080498269962242e-19  2.5195543739085917e-19  2.9005636061115024e-19  8.0390265926375702e-19  4.8975119633583152e-18  2.5507828901695176e-17  1.1806214377334091e-16  5.3791896247646420e-16  2.3219470288543057e-15  9.0145160176520032e-15  3.1411551393168187e-14  1.0025525300362900e-13  2.9690369581435224e-13  8.1569029253392777e-13  2.0714918754272569e-12  4.8719346619531020e-12  1.0702206339695023e-11  2.2209187568181331e-11  4.3973622951942476e-11  8.3632392020675041e-11  1.5351475890083134e-10  2.7339399029706301e-10  4.7570479724382769e-10  8.1523802095338288e-10  1.3853570557621384e-09  2.3419295000465188e-09  3.9346615643467585e-09  6.5439043630463545e-09  1.0719792016354394e-08  1.7220048700203197e-08  2.7042970666228795e-08  4.1452775145111612e-08  6.1995469419743313e-08  9.0504405811339390e-08  1.2909558909128561e-07  1.8015350189986464e-07  2.4630868332501377e-07  3.3040855068758735e-07  4.3548303258021388e-07  5.6470652939742155e-07  7.2135757746279439e-07  9.0877741985956271e-07  1.1303284398525763e-06  1.3893534066506047e-06  1.6891355831212122e-06  2.0328622300262979e-06  2.4235848241858733e-06  2.8641988656548683e-06  3.3573751664453798e-06  3.9056347211003459e-06  4.5110710055798598e-06  5.1758734597599311e-06  5.9013504269906070e-06  6.6888948840682303e-06  7.5415616739048067e-06  8.4502701827155699e-06  9.4479773377420503e-06  1.0444468408868101e-05  1.1658097821513831e-05  1.2610065530369826e-05  3.3609526691097820e-19  3.4127110602717888e-19  3.4644112481260788e-19  3.5169243790764711e-19  3.6047143327879967e-19  3.8397762374881247e-19  4.7368482921310116e-19  1.1947965268420078e-18  6.6079117078019005e-18  3.8395375054575240e-17  2.0443617437236308e-16  1.0230663744013947e-15  4.7438179099756686e-15  1.9965505906971114e-14  7.6160720672046556e-14  2.6553907667256245e-13  8.5127372567004416e-13  2.5123221377599500e-12  6.8277223348793372e-12  1.7134857475644280e-11  3.9935142605294525e-11  8.7054178371124554e-11  1.7875639346396813e-10  3.4805606442995389e-10  6.4692871960919805e-10  1.1564097902719379e-09  2.0044103977737656e-09  3.3962369998007038e-09  5.6618169741765174e-09  9.3201690409132425e-09  1.5156979555690494e-08  2.4307233468282587e-08  3.8333082715244411e-08  5.9287710286153526e-08  8.9758200282422556e-08  1.3288344943834177e-07  1.9234620300986287e-07  2.7234087162695409e-07  3.7752062372246282e-07  5.1292828533451904e-07  6.8391590065764591e-07  8.9605758528291532e-07  1.1550597354154674e-06  1.4666719142704320e-06  1.8366009541802910e-06  2.2704300744404338e-06  2.7735441891829628e-06  3.3510620121810790e-06  4.0077753905584995e-06  4.7480951610945154e-06  5.5760059186088254e-06  6.4950201950450657e-06  7.5081627326328186e-06  8.6178860871772672e-06  9.8262097668215348e-06  1.1134275709555171e-05  1.2543356464479936e-05  1.4052736683489339e-05  1.5663107467300550e-05  1.7374257804232647e-05  1.9173924657180180e-05  2.1104835338347647e-05  2.3023478994383338e-05  2.5300319230840647e-05  2.7056849193283458e-05  5.6180198347119520e-19  5.7032303422466345e-19  5.7906544178529070e-19  5.8980087332649648e-19  6.1347189518124982e-19  7.2087907383501857e-19  1.5374970825013166e-18  7.7828514542986209e-18  4.8813935120591446e-17  2.8991661096176221e-16  1.5942019955284761e-15  8.0450309499478684e-15  3.6925673929360910e-14  1.5403450851413251e-13  5.8624064932321157e-13  2.0421275606711264e-12  6.5200196959655515e-12  1.9103629198208309e-11  5.1496084653676491e-11  1.2821562751448167e-10  2.9629538857880867e-10  6.3888988929595171e-10  1.2927969909785559e-09  2.4708339364793258e-09  4.4936085407015607e-09  7.8407258106147315e-09  1.3234683572488222e-08  2.1766517833481476e-08  3.5059661557060488e-08  5.5452938407818108e-08  8.6173411538519112e-08  1.3146978310854151e-07  1.9668572708939946e-07  2.8826462605681311e-07  4.1368785927471858e-07  5.8135599170030913e-07  8.0042609376010406e-07  1.0806198403617558e-06  1.4320166907737237e-06  1.8648448172136511e-06  2.3892799861425241e-06  3.0152597896832344e-06  3.7523179047776756e-06  4.6094407113848039e-06  5.5949467604416944e-06  6.7163882593027343e-06  7.9804729027076836e-06  9.3930038585964526e-06  1.0958835792055442e-05  1.2681843866255364e-05  1.4564906781036583e-05  1.6609890408985560e-05  1.8817671541574566e-05  2.1188064118872437e-05  2.3720073923238102e-05  2.6411233198486463e-05  2.9259388785903349e-05  3.2258645763044534e-05  3.5407435322750336e-05  3.8697026598026244e-05  4.2113643677996003e-05  4.5703330946917216e-05  4.9256191585725655e-05  5.3363944245774632e-05  5.6485978778369740e-05  9.5222854558893017e-19  9.6653280108308429e-19  9.8226322891573922e-19  1.0074304573117813e-18  1.1069987108547923e-18  1.8586726885352915e-18  7.9223657699266585e-18  5.1892540877264389e-17  3.3883132086360842e-16  2.0463294467652959e-15  1.1296253500818076e-14  5.6719718499401577e-14  2.5894061553365739e-13  1.0769556573766840e-12  4.0883810756959463e-12  1.4184166275196210e-11  4.5032345345957785e-11  1.3109576909988699e-10  3.5093168690919433e-10  8.6681091941363647e-10  1.9834253111781294e-09  4.2236535263608844e-09  8.4159382755649996e-09  1.5792751008738152e-08  2.8115755267246819e-08  4.7860852596765555e-08  7.8495133544709546e-08  1.2484478417672433e-07  1.9349976936529258e-07  2.9316013737309285e-07  4.3482818406728678e-07  6.3179132296365213e-07  8.9939731745452860e-07  1.2546673846746584e-06  1.7158100342979522e-06  2.3016940913767084e-06  3.0313255873989134e-06  3.9233594584231435e-06  4.9956663404406407e-06  6.2649665461070842e-06  7.7465364388580187e-06  9.4539866258971355e-06  1.1399106940940323e-05  1.3591770288608417e-05  1.6039885988852329e-05  1.8749392988949664e-05  2.1724283861150796e-05  2.4966651475567860e-05  2.8476751763678929e-05  3.2253076216667429e-05  3.6292433612422929e-05  4.0590023738593877e-05  4.5139553409481912e-05  4.9933211385209647e-05  5.4962100041748811e-05  6.0215278715175266e-05  6.5682719302272787e-05  7.1348146250998097e-05  7.7205296378566088e-05  8.3228026643311997e-05  8.9406910661430261e-05  9.5772314417266451e-05  1.0205121786694626e-04  1.0911896247164247e-04  1.1442839725216773e-04  1.6155361903079292e-18  1.6406050105245127e-18  1.6721388004260137e-18  1.7560145989103162e-18  2.3296558108928420e-18  7.2210768005465547e-18  4.6168557449492386e-17  3.2697604847576430e-16  2.1665776824424453e-15  1.3112652913487476e-14  7.2160857639287901e-14  3.6094400663652641e-13  1.6428291280165091e-12  6.8123195877606212e-12  2.5762705424080398e-11  8.8955652299952938e-11  2.8087738830796925e-10  8.1266481052792082e-10  2.1599403554317923e-09  5.2891739538921646e-09  1.1975043100740994e-08  2.5174570893506039e-08  4.9395033819966903e-08  9.1007488114199032e-08  1.5852747060544839e-07  2.6296266770598471e-07  4.1833030508944277e-07  6.4233037301848399e-07  9.5698265221575398e-07  1.3889270731882355e-06  1.9691438140869660e-06  2.7320466169955800e-06  3.7141165912589163e-06  4.9523555906001443e-06  6.4828170652278667e-06  8.3393718943757930e-06  1.0552762691350878e-05  1.3149935299705476e-05  1.6153611707305827e-05  1.9582065777528064e-05  2.3449065937513599e-05  2.7763950977222965e-05  3.2531806491401125e-05  3.7753711706822283e-05  4.3427030026252680e-05  4.9545721199999569e-05  5.6100657944600347e-05  6.3079934436635949e-05  7.0469158484443863e-05  7.8251721411767611e-05  8.6409047529570996e-05  9.4920806198520220e-05  1.0376515218869491e-04  1.1291876195711746e-04  1.2235747601490018e-04  1.3205493365776855e-04  1.4198714753312137e-04  1.5212061182414915e-04  1.6244191130731697e-04  1.7289453031976866e-04  1.8348794250766157e-04  1.9419540144716878e-04  2.0472726112301943e-04  2.1624881023945880e-04  2.2484174834335038e-04  2.7275417051879165e-18  2.7750615544432056e-18  2.8541141169122378e-18  3.2355978670123342e-18  6.5133121893461941e-18  3.4975139218683727e-17  2.6111277565427824e-16  1.8925270741684678e-15  1.2569819362126898e-14  7.5908218529592953e-14  4.1645784186337676e-13  2.0770658445690090e-12  9.4252470064229714e-12  3.8944751885368839e-11  1.4666163191837906e-10  5.0397641457253023e-10  1.5826464598044856e-09  4.5502009864810470e-09  1.2003216349678118e-08  2.9129284303903921e-08  6.5242129506615582e-08  1.3539571205270365e-07  2.6158784646020928e-07  4.7311668692867129e-07  8.0604621866935777e-07  1.3022719883964756e-06  2.0089298948881862e-06  2.9785554270187837e-06  4.2696429378127755e-06  5.9466538484731268e-06  8.0785895007537751e-06  1.0735955988062261e-05  1.3986775732059488e-05  1.7892687676840735e-05  2.2505978140944003e-05  2.7867870809729490e-05  3.4007950139479371e-05  4.0944386480490826e-05  4.8684640007191541e-05  5.7226418245433747e-05  6.6558753265135348e-05  7.6663118961757906e-05  8.7514534970461989e-05  9.9082617656657602e-05  1.1133254956720421e-04  1.2422594916734812e-04  1.3772163219175076e-04  1.5177626366345083e-04  1.6634490567070102e-04  1.8138146864136274e-04  1.9683908172150736e-04  2.1267037527323096e-04  2.2882776448067047e-04  2.4526345431997922e-04  2.6193022649911342e-04  2.7877944960663447e-04  2.9576772705128019e-04  3.1283811464080430e-04  3.2997018319996530e-04  3.4706104446876208e-04  3.6416966027852003e-04  3.8113424244027720e-04  3.9778552227041604e-04  4.1542738234854156e-04  4.2857136167924481e-04  4.5786152078710470e-18  4.6803614523474361e-18  4.9393594598007043e-18  6.8003221848529632e-18  2.3976821306722772e-17  1.7385912888213525e-16  1.3645701285454766e-15  9.9428995461968953e-15  6.5943233032796330e-14  3.9719128117059094e-13  2.1731743136226523e-12  1.0807033544137436e-11  4.8877323489522846e-11  2.0119181772895471e-10  7.5440802685363418e-10  2.5797651098194091e-09  8.0559471426376227e-09  2.3009990506818533e-08  6.0232234260156821e-08  1.4484215067811998e-07  3.2091582988003108e-07  6.5746041508415223e-07  1.2507997041298096e-06  2.2208721268462076e-06  3.7014107799737259e-06  5.8274405695317093e-06  8.7255319686434999e-06  1.2510786208440731e-05  1.7290149348838911e-05  2.3167509234849245e-05  3.0245270689261468e-05  3.8620080542635129e-05  4.8374477178068300e-05  5.9568438327693765e-05  7.2234134214072730e-05  8.6374950765243306e-05  1.0196789568987671e-04  1.1896776455639128e-04  1.3731171222253267e-04  1.5692348856062894e-04  1.7771708677753929e-04  1.9959979549948867e-04  2.2247471720844266e-04  2.4624281727048293e-04  2.7080455735800218e-04  2.9606116174996246e-04  3.2191556422859579e-04  3.4827308334174964e-04  3.7504187297008403e-04  4.0213319122884834e-04  4.2946153263725430e-04  4.5694463799775194e-04  4.8450350066104887e-04  5.1206204507375037e-04  5.3954781490344109e-04  5.6688900171646703e-04  5.9402355520073787e-04  6.2087083249714504e-04  6.4741134083264528e-04  6.7348014022759338e-04  6.9924286968389932e-04  7.2426971122512810e-04  7.4881386049338247e-04  7.7382515267227121e-04  7.9262174331820893e-04  7.6687880485604840e-18  7.9193447657177007e-18  8.9070167145159344e-18  1.7555920597160079e-17  9.9385721796342474e-17  8.1448364411445887e-16  6.4877174704867360e-15  4.7266859403953090e-14  3.1279042418397458e-13  1.8791870940244518e-12  1.0253152690412819e-11  5.0830225883940675e-11  2.2909047428801680e-10  9.3931190651594500e-10  3.5066527866520091e-09  1.1931366318303487e-08  3.7044348661699229e-08  1.0510346039124531e-07  2.7298818338704555e-07  6.5049587946122907e-07  1.4258379625176680e-06  2.8841465264082852e-06  5.4046174402074787e-06  9.4255598355054975e-06  1.5380560408122782e-05  2.3627244233964984e-05  3.4399594996098493e-05  4.7805255545364201e-05  6.3864345770140354e-05  8.2563316605146656e-05  1.0389286206705815e-04  1.2785443274588576e-04  1.5444154302281742e-04  1.8361413124467509e-04  2.1528187216135830e-04  2.4930207893385936e-04  2.8548887555618309e-04  3.2362708885639283e-04  3.6348567899662393e-04  4.0482833639759124e-04  4.4742096302878163e-04  4.9103664461673893e-04  5.3545882638194871e-04  5.8048323164957194e-04  6.2591888107323568e-04  6.7158845253346825e-04  7.1732815623092451e-04  7.6298726132772814e-04  8.0842738442711765e-04  8.5352162785165813e-04  8.9815364340219605e-04  9.4221665434317541e-04  9.8561257501396122e-04  1.0282508533953076e-03  1.0700486501588646e-03  1.1109264373568050e-03  1.1508198889075257e-03  1.1896389448628954e-03  1.2273885540863326e-03  1.2638321601416297e-03  1.2993386671764002e-03  1.3329991242610171e-03  1.3660625188282231e-03  1.3979914088844852e-03  1.4226345680188443e-03  1.2916254683865387e-17  1.3605478110986716e-17  1.7458520019848581e-17  5.4467073346280091e-17  4.0794210701427033e-16  3.4951613389661902e-15  2.7938053606797137e-14  2.0321494522302667e-13  1.3415987164349248e-12  8.0388780766371519e-12  4.3733993877360353e-11  2.1611264403207237e-10  9.7052123587542809e-10  3.9633860622557870e-09  1.4729535981828416e-08  4.9860970528880857e-08  1.5390348183745239e-07  4.3373097621230823e-07  1.1178182270701208e-06  2.6396718755280078e-06  5.7252434830460372e-06  1.1438457474437141e-05  2.1125434299514908e-05  3.6220910529357040e-05  5.7947057826075335e-05  8.7014153574694117e-05  1.2346415827512372e-04  1.6674111240055225e-04  2.1595156552937269e-04  2.7017680492472383e-04  3.2868871981470220e-04  3.9100142732557253e-04  4.5679280504001645e-04  5.2578336710992182e-04  5.9764673676626656e-04  6.7197872618067749e-04  7.4831225688620588e-04  8.2615149396476418e-04  9.0500462254694200e-04  9.8440652866532588e-04  1.0639310902969699e-03  1.1431960522062373e-03  1.2218635140371116e-03  1.2996380849649529e-03  1.3762638682054389e-03  1.4515208967721962e-03  1.5252213651081902e-03  1.5972058648053814e-03  1.6673397590334130e-03  1.735509