<?xml version="1.0"?>
<VTKFile type="UnstructuredGrid"  version="0.1"  >
<UnstructuredGrid>
<Piece  NumberOfPoints="4225" NumberOfCells="8192">
<Points>
<DataArray  type="Float64"  NumberOfComponents="3"  format="ascii">0 0 0  0.015625 0 0  0.03125 0 0  0.046875 0 0  0.0625 0 0  0.078125 0 0  0.09375 0 0  0.109375 0 0  0.125 0 0  0.140625 0 0  0.15625 0 0  0.171875 0 0  0.1875 0 0  0.203125 0 0  0.21875 0 0  0.234375 0 0  0.25 0 0  0.265625 0 0  0.28125 0 0  0.296875 0 0  0.3125 0 0  0.328125 0 0  0.34375 0 0  0.359375 0 0  0.375 0 0  0.390625 0 0  0.40625 0 0  0.421875 0 0  0.4375 0 0  0.453125 0 0  0.46875 0 0  0.484375 0 0  0.5 0 0  0.515625 0 0  0.53125 0 0  0.546875 0 0  0.5625 0 0  0.578125 0 0  0.59375 0 0  0.609375 0 0  0.625 0 0  0.640625 0 0  0.65625 0 0  0.671875 0 0  0.6875 0 0  0.703125 0 0  0.71875 0 0  0.734375 0 0  0.75 0 0  0.765625 0 0  0.78125 0 0  0.796875 0 0  0.8125 0 0  0.828125 0 0  0.84375 0 0  0.859375 0 0  0.875 0 0  0.890625 0 0  0.90625 0 0  0.921875 0 0  0.9375 0 0  0.953125 0 0  0.96875 0 0  0.984375 0 0  1 0 0  0 0.015625 0  0.015625 0.015625 0  0.03125 0.015625 0  0.046875 0.015625 0  0.0625 0.015625 0  0.078125 0.015625 0  0.09375 0.015625 0  0.109375 0.015625 0  0.125 0.015625 0  0.140625 0.015625 0  0.15625 0.015625 0  0.171875 0.015625 0  0.1875 0.015625 0  0.203125 0.015625 0  0.21875 0.015625 0  0.234375 0.015625 0  0.25 0.015625 0  0.265625 0.015625 0  0.28125 0.015625 0  0.296875 0.015625 0  0.3125 0.015625 0  0.328125 0.015625 0  0.34375 0.015625 0  0.359375 0.015625 0  0.375 0.015625 0  0.390625 0.015625 0  0.40625 0.015625 0  0.421875 0.015625 0  0.4375 0.015625 0  0.453125 0.015625 0  0.46875 0.015625 0  0.484375 0.015625 0  0.5 0.015625 0  0.515625 0.015625 0  0.53125 0.015625 0  0.546875 0.015625 0  0.5625 0.015625 0  0.578125 0.015625 0  0.59375 0.015625 0  0.609375 0.015625 0  0.625 0.015625 0  0.640625 0.015625 0  0.65625 0.015625 0  0.671875 0.015625 0  0.6875 0.015625 0  0.703125 0.015625 0  0.71875 0.015625 0  0.734375 0.015625 0  0.75 0.015625 0  0.765625 0.015625 0  0.78125 0.015625 0  0.796875 0.015625 0  0.8125 0.015625 0  0.828125 0.015625 0  0.84375 0.015625 0  0.859375 0.015625 0  0.875 0.015625 0  0.890625 0.015625 0  0.90625 0.015625 0  0.921875 0.015625 0  0.9375 0.015625 0  0.953125 0.015625 0  0.96875 0.015625 0  0.984375 0.015625 0  1 0.015625 0  0 0.03125 0  0.015625 0.03125 0  0.03125 0.03125 0  0.046875 0.03125 0  0.0625 0.03125 0  0.078125 0.03125 0  0.09375 0.03125 0  0.109375 0.03125 0  0.125 0.03125 0  0.140625 0.03125 0  0.15625 0.03125 0  0.171875 0.03125 0  0.1875 0.03125 0  0.203125 0.03125 0  0.21875 0.03125 0  0.234375 0.03125 0  0.25 0.03125 0  0.265625 0.03125 0  0.28125 0.03125 0  0.296875 0.03125 0  0.3125 0.03125 0  0.328125 0.03125 0  0.34375 0.03125 0  0.359375 0.03125 0  0.375 0.03125 0  0.390625 0.03125 0  0.40625 0.03125 0  0.421875 0.03125 0  0.4375 0.03125 0  0.453125 0.03125 0  0.46875 0.03125 0  0.484375 0.03125 0  0.5 0.03125 0  0.515625 0.03125 0  0.53125 0.03125 0  0.546875 0.03125 0  0.5625 0.03125 0  0.578125 0.03125 0  0.59375 0.03125 0  0.609375 0.03125 0  0.625 0.03125 0  0.640625 0.03125 0  0.65625 0.03125 0  0.671875 0.03125 0  0.6875 0.03125 0  0.703125 0.03125 0  0.71875 0.03125 0  0.734375 0.03125 0  0.75 0.03125 0  0.765625 0.03125 0  0.78125 0.03125 0  0.796875 0.03125 0  0.8125 0.03125 0  0.828125 0.03125 0  0.84375 0.03125 0  0.859375 0.03125 0  0.875 0.03125 0  0.890625 0.03125 0  0.90625 0.03125 0  0.921875 0.03125 0  0.9375 0.03125 0  0.953125 0.03125 0  0.96875 0.03125 0  0.984375 0.03125 0  1 0.03125 0  0 0.046875 0  0.015625 0.046875 0  0.03125 0.046875 0  0.046875 0.046875 0  0.0625 0.046875 0  0.078125 0.046875 0  0.09375 0.046875 0  0.109375 0.046875 0  0.125 0.046875 0  0.140625 0.046875 0  0.15625 0.046875 0  0.171875 0.046875 0  0.1875 0.046875 0  0.203125 0.046875 0  0.21875 0.046875 0  0.234375 0.046875 0  0.25 0.046875 0  0.265625 0.046875 0  0.28125 0.046875 0  0.296875 0.046875 0  0.3125 0.046875 0  0.328125 0.046875 0  0.34375 0.046875 0  0.359375 0.046875 0  0.375 0.046875 0  0.390625 0.046875 0  0.40625 0.046875 0  0.421875 0.046875 0  0.4375 0.046875 0  0.453125 0.046875 0  0.46875 0.046875 0  0.484375 0.046875 0  0.5 0.046875 0  0.515625 0.046875 0  0.53125 0.046875 0  0.546875 0.046875 0  0.5625 0.046875 0  0.578125 0.046875 0  0.59375 0.046875 0  0.609375 0.046875 0  0.625 0.046875 0  0.640625 0.046875 0  0.65625 0.046875 0  0.671875 0.046875 0  0.6875 0.046875 0  0.703125 0.046875 0  0.71875 0.046875 0  0.734375 0.046875 0  0.75 0.046875 0  0.765625 0.046875 0  0.78125 0.046875 0  0.796875 0.046875 0  0.8125 0.046875 0  0.828125 0.046875 0  0.84375 0.046875 0  0.859375 0.046875 0  0.875 0.046875 0  0.890625 0.046875 0  0.90625 0.046875 0  0.921875 0.046875 0  0.9375 0.046875 0  0.953125 0.046875 0  0.96875 0.046875 0  0.984375 0.046875 0  1 0.046875 0  0 0.0625 0  0.015625 0.0625 0  0.03125 0.0625 0  0.046875 0.0625 0  0.0625 0.0625 0  0.078125 0.0625 0  0.09375 0.0625 0  0.109375 0.0625 0  0.125 0.0625 0  0.140625 0.0625 0  0.15625 0.0625 0  0.171875 0.0625 0  0.1875 0.0625 0  0.203125 0.0625 0  0.21875 0.0625 0  0.234375 0.0625 0  0.25 0.0625 0  0.265625 0.0625 0  0.28125 0.0625 0  0.296875 0.0625 0  0.3125 0.0625 0  0.328125 0.0625 0  0.34375 0.0625 0  0.359375 0.0625 0  0.375 0.0625 0  0.390625 0.0625 0  0.40625 0.0625 0  0.421875 0.0625 0  0.4375 0.0625 0  0.453125 0.0625 0  0.46875 0.0625 0  0.484375 0.0625 0  0.5 0.0625 0  0.515625 0.0625 0  0.53125 0.0625 0  0.546875 0.0625 0  0.5625 0.0625 0  0.578125 0.0625 0  0.59375 0.0625 0  0.609375 0.0625 0  0.625 0.0625 0  0.640625 0.0625 0  0.65625 0.0625 0  0.671875 0.0625 0  0.6875 0.0625 0  0.703125 0.0625 0  0.71875 0.0625 0  0.734375 0.0625 0  0.75 0.0625 0  0.765625 0.0625 0  0.78125 0.0625 0  0.796875 0.0625 0  0.8125 0.0625 0  0.828125 0.0625 0  0.84375 0.0625 0  0.859375 0.0625 0  0.875 0.0625 0  0.890625 0.0625 0  0.90625 0.0625 0  0.921875 0.0625 0  0.9375 0.0625 0  0.953125 0.0625 0  0.96875 0.0625 0  0.984375 0.0625 0  1 0.0625 0  0 0.078125 0  0.015625 0.078125 0  0.03125 0.078125 0  0.046875 0.078125 0  0.0625 0.078125 0  0.078125 0.078125 0  0.09375 0.078125 0  0.109375 0.078125 0  0.125 0.078125 0  0.140625 0.078125 0  0.15625 0.078125 0  0.171875 0.078125 0  0.1875 0.078125 0  0.203125 0.078125 0  0.21875 0.078125 0  0.234375 0.078125 0  0.25 0.078125 0  0.265625 0.078125 0  0.28125 0.078125 0  0.296875 0.078125 0  0.3125 0.078125 0  0.328125 0.078125 0  0.34375 0.078125 0  0.359375 0.078125 0  0.375 0.078125 0  0.390625 0.078125 0  0.40625 0.078125 0  0.421875 0.078125 0  0.4375 0.078125 0  0.453125 0.078125 0  0.46875 0.078125 0  0.484375 0.078125 0  0.5 0.078125 0  0.515625 0.078125 0  0.53125 0.078125 0  0.546875 0.078125 0  0.5625 0.078125 0  0.578125 0.078125 0  0.59375 0.078125 0  0.609375 0.078125 0  0.625 0.078125 0  0.640625 0.078125 0  0.65625 0.078125 0  0.671875 0.078125 0  0.6875 0.078125 0  0.703125 0.078125 0  0.71875 0.078125 0  0.734375 0.078125 0  0.75 0.078125 0  0.765625 0.078125 0  0.78125 0.078125 0  0.796875 0.078125 0  0.8125 0.078125 0  0.828125 0.078125 0  0.84375 0.078125 0  0.859375 0.078125 0  0.875 0.078125 0  0.890625 0.078125 0  0.90625 0.078125 0  0.921875 0.078125 0  0.9375 0.078125 0  0.953125 0.078125 0  0.96875 0.078125 0  0.984375 0.078125 0  1 0.078125 0  0 0.09375 0  0.015625 0.09375 0  0.03125 0.09375 0  0.046875 0.09375 0  0.0625 0.09375 0  0.078125 0.09375 0  0.09375 0.09375 0  0.109375 0.09375 0  0.125 0.09375 0  0.140625 0.09375 0  0.15625 0.09375 0  0.171875 0.09375 0  0.1875 0.09375 0  0.203125 0.09375 0  0.21875 0.09375 0  0.234375 0.09375 0  0.25 0.09375 0  0.265625 0.09375 0  0.28125 0.09375 0  0.296875 0.09375 0  0.3125 0.09375 0  0.328125 0.09375 0  0.34375 0.09375 0  0.359375 0.09375 0  0.375 0.09375 0  0.390625 0.09375 0  0.40625 0.09375 0  0.421875 0.09375 0  0.4375 0.09375 0  0.453125 0.09375 0  0.46875 0.09375 0  0.484375 0.09375 0  0.5 0.09375 0  0.515625 0.09375 0  0.53125 0.09375 0  0.546875 0.09375 0  0.5625 0.09375 0  0.578125 0.09375 0  0.59375 0.09375 0  0.609375 0.09375 0  0.625 0.09375 0  0.640625 0.09375 0  0.65625 0.09375 0  0.671875 0.09375 0  0.6875 0.09375 0  0.703125 0.09375 0  0.71875 0.09375 0  0.734375 0.09375 0  0.75 0.09375 0  0.765625 0.09375 0  0.78125 0.09375 0  0.796875 0.09375 0  0.8125 0.09375 0  0.828125 0.09375 0  0.84375 0.09375 0  0.859375 0.09375 0  0.875 0.09375 0  0.890625 0.09375 0  0.90625 0.09375 0  0.921875 0.09375 0  0.9375 0.09375 0  0.953125 0.09375 0  0.96875 0.09375 0  0.984375 0.09375 0  1 0.09375 0  0 0.109375 0  0.015625 0.109375 0  0.03125 0.109375 0  0.046875 0.109375 0  0.0625 0.109375 0  0.078125 0.109375 0  0.09375 0.109375 0  0.109375 0.109375 0  0.125 0.109375 0  0.140625 0.109375 0  0.15625 0.109375 0  0.171875 0.109375 0  0.1875 0.109375 0  0.203125 0.109375 0  0.21875 0.109375 0  0.234375 0.109375 0  0.25 0.109375 0  0.265625 0.109375 0  0.28125 0.109375 0  0.296875 0.109375 0  0.3125 0.109375 0  0.328125 0.109375 0  0.34375 0.109375 0  0.359375 0.109375 0  0.375 0.109375 0  0.390625 0.109375 0  0.40625 0.109375 0  0.421875 0.109375 0  0.4375 0.109375 0  0.453125 0.109375 0  0.46875 0.109375 0  0.484375 0.109375 0  0.5 0.109375 0  0.515625 0.109375 0  0.53125 0.109375 0  0.546875 0.109375 0  0.5625 0.109375 0  0.578125 0.109375 0  0.59375 0.109375 0  0.609375 0.109375 0  0.625 0.109375 0  0.640625 0.109375 0  0.65625 0.109375 0  0.671875 0.109375 0  0.6875 0.109375 0  0.703125 0.109375 0  0.71875 0.109375 0  0.734375 0.109375 0  0.75 0.109375 0  0.765625 0.109375 0  0.78125 0.109375 0  0.796875 0.109375 0  0.8125 0.109375 0  0.828125 0.109375 0  0.84375 0.109375 0  0.859375 0.109375 0  0.875 0.109375 0  0.890625 0.109375 0  0.90625 0.109375 0  0.921875 0.109375 0  0.9375 0.109375 0  0.953125 0.109375 0  0.96875 0.109375 0  0.984375 0.109375 0  1 0.109375 0  0 0.125 0  0.015625 0.125 0  0.03125 0.125 0  0.046875 0.125 0  0.0625 0.125 0  0.078125 0.125 0  0.09375 0.125 0  0.109375 0.125 0  0.125 0.12
[...]
<PointData  Scalars="f_14444"> 
<DataArray  type="Float64"  Name="f_14444"  format="ascii">2.4681113841622296e-11  2.9524549324075852e-11  5.8551359014394646e-11  1.8227650319516233e-10  6.6075074711973575e-10  2.4146444897059602e-09  8.5641331298977261e-09  2.9214665168505455e-08  9.5600375679731466e-08  2.9973117792010349e-07  8.9961098843500952e-07  2.5830615855421009e-06  7.0913555045994121e-06  1.8605570178935837e-05  4.6636739536447812e-05  1.1165679750943810e-04  2.5530702068813190e-04  5.5751725878163154e-04  1.1628330631961756e-03  2.3170356949589457e-03  4.4120763151830160e-03  8.0321303570172944e-03  1.3986844965095380e-02  2.3311606200289277e-02  3.7212172092995731e-02  5.6935894046307042e-02  8.3566129893072078e-02  1.1775914648188449e-01  1.5946834433158508e-01  2.0772021039215000e-01  2.6051087718315019e-01  3.1487605360709592e-01  3.6715172303035365e-01  4.1339710651124806e-01  4.4990849689987894e-01  4.7372618115908921e-01  4.8303523215810329e-01  4.7738483760494060e-01  4.5769248407689039e-01  4.2604629593644860e-01  3.8535832933506425e-01  3.3894451211536242e-01  2.9010998392047282e-01  2.4180445004724416e-01  1.9638739333381069e-01  1.5551544005331125e-01  1.2014055093105942e-01  9.0592090533606506e-02  6.6709344457102582e-02  4.7992440861324447e-02  3.3746267049371163e-02  2.3200922409492238e-02  1.5601060102826773e-02  1.0263553769538076e-02  6.6076057755326779e-03  4.1637362059509615e-03  2.5685414635304464e-03  1.5513387862637281e-03  9.1743582557009208e-04  5.3125694908162809e-04  3.0121856037111340e-04  1.6721489451325538e-04  9.0919237459645413e-05  4.8665212017224824e-05  3.5264627739318141e-05  2.3277665521874122e-11  2.8488460612467285e-11  5.9122460160179723e-11  1.8987201178886875e-10  6.9809909654614284e-10  2.5719738267218543e-09  9.1796803094388546e-09  3.1486630975909702e-08  1.0354237004042847e-07  3.2605880343575339e-07  9.8242259866222087e-07  2.8302830105846414e-06  7.7919311189494828e-06  2.0490210489643292e-05  5.1449867711065917e-05  1.2332692606427346e-04  2.8217333819185715e-04  6.1624951851468228e-04  1.2847749620109180e-03  2.5575435574440538e-03  4.8628077466950160e-03  8.8350045278719584e-03  1.5346593144636014e-02  2.5501862333748179e-02  4.0568729033567182e-02  6.1831112406903900e-02  9.0361374082303575e-02  1.2673762056599033e-01  1.7075773627286950e-01  2.2122095816635032e-01  2.7584903224282770e-01  3.3139764230500507e-01  3.8396782566179988e-01  4.2947727263601754e-01  4.6420790566907832e-01  4.8532291049640724e-01  4.9125095845576133e-01  4.8186612182554889e-01  4.5843918365639352e-01  4.2338564275869978e-01  3.7987440943281753e-01  3.3138050299774519e-01  2.8126318502379427e-01  2.3243208074172270e-01  1.8713573134010558e-01  1.4687807802557698e-01  1.1244519410909178e-01  8.4010667007186887e-02  6.1283773801229263e-02  4.3668070300268223e-02  3.0406175804983955e-02  2.0696298478958645e-02  1.3775017508808364e-02  8.9676214743532566e-03  5.7114467640450878e-03  3.5594051381200678e-03  2.1708488173863187e-03  1.2958054197971945e-03  7.5704668593985596e-04  4.3288096234050054e-04  2.4223749467415894e-04  1.3264320189706837e-04  7.1093000510205436e-05  3.7756997641130923e-05  2.6361758219669830e-05  2.0520505577286543e-11  2.5337694017214158e-11  5.4952502682782354e-11  1.8376810817377071e-10  6.9377314665034705e-10  2.6086372632038479e-09  9.4793215087126470e-09  3.3057337187713064e-08  1.1039198468825251e-07  3.5260764219095294e-07  1.0763726968134621e-06  3.1379427185784776e-06  8.7313982252151851e-06  2.3177855097572355e-05  5.8675591297216136e-05  1.4162224321430917e-04  3.2586803822890565e-04  7.1480365058202637e-04  1.4949149999186910e-03  2.9814799347015384e-03  5.6726151158801490e-03  1.0300744016215528e-02  1.7862008434722312e-02  2.9597323910865610e-02  4.6898261763953931e-02  7.1121062823784276e-02  1.0331436014758744e-01  1.4389699882551407e-01  1.9235253455181103e-01  2.4702433301546992e-01  3.0508925613222670e-01  3.6275535385103852e-01  4.1567637778771549e-01  4.5951849408344630e-01  4.9057073020690667e-01  5.0627502426990778e-01  5.0556938865998147e-01  4.8898266657833150e-01  4.5847728760103651e-01  4.1709021584872330e-01  3.6845805510413460e-01  3.1632333899083070e-01  2.6410673451892724e-01  2.1460164626867720e-01  1.6981356352639729e-01  1.3093564869895544e-01  9.8430583163030980e-02  7.2178723788839827e-02  5.1653003193612108e-02  3.6088534044116653e-02  2.4625772787792658e-02  1.6417101872051802e-02  1.0695647723455725e-02  6.8111113001256456e-03  4.2403625299268048e-03  2.5811447888528512e-03  1.5362832695654056e-03  8.9408336163169274e-04  5.0874632442592105e-04  2.8299402419401225e-04  1.5385286946056261e-04  8.1724374575986065e-05  4.2417134159503586e-05  2.1782715383460037e-05  1.4199794647298336e-05  1.8002864202583106e-11  2.2624673810208884e-11  5.1380637186905305e-11  1.7850864054763195e-10  6.9098860987605218e-10  2.6500216670799322e-09  9.8011351871548277e-09  3.4742042139585082e-08  1.1778978666564610e-07  3.8154254797681347e-07  1.1797330689114739e-06  3.4794657769606720e-06  9.7828021337414924e-06  2.6207192533124861e-05  6.6868382427564657e-05  1.6246278854628482e-04  3.7580579557537229e-04  8.2765198615728820e-04  1.7356392231617716e-03  3.4666102555756181e-03  6.5969519387977238e-03  1.1966952942314174e-02  2.0705350764959950e-02  3.4193317451838838e-02  5.3938696033267737e-02  8.1346067206671507e-02  1.1739683281269370e-01  1.6229003760601865e-01  2.1512691802400333e-01  2.7373558671360593e-01  3.3471627912922008e-01  3.9374159287172239e-01  4.4608158017553162e-01  4.8726053405331637e-01  5.1371200400203143e-01  5.2329475994785857e-01  5.1556616760124774e-01  4.9176920110183164e-01  4.5455597974506584e-01  4.0752496893189077e-01  3.5467780658605197e-01  2.9990155964230647e-01  2.4655836957815871e-01  1.9722759742310794e-01  1.5360743827979800e-01  1.1655269080585419e-01  8.6207682431442348e-02  6.2188591921105089e-02  4.3774736597136481e-02  3.0079526505227411e-02  2.0184560718664764e-02  1.3231658826968043e-02  8.4758115338542488e-03  5.3067037438641130e-03  3.2480919722657387e-03  1.9438077373534826e-03  1.1374669833817159e-03  6.5087876521321194e-04  3.6418950830015761e-04  1.9924347743891400e-04  1.0656253417284845e-04  5.5705416348312891e-05  2.8465285136066135e-05  1.4381413659102330e-05  9.5746495691449904e-06  1.5728642514236287e-11  2.0137630243746865e-11  4.7923952265983514e-11  1.7291969985550547e-10  6.8637040591366857e-10  2.6859853867410065e-09  1.0116248305272690e-08  3.6468200107295659e-08  1.2559332151496771e-07  4.1274888388623756e-07  1.2932513286145591e-06  3.8603512584558023e-06  1.0970817882350116e-05  2.9668353433000593e-05  7.6316442914948606e-05  1.8667945014817184e-04  4.3417894967035490e-04  9.6013513943187586e-04  2.0190276757188802e-03  4.0384094198830716e-03  7.6860648863243683e-03  1.3926575664721531e-02  2.4038249256574006e-02  3.9554700106245753e-02  6.2099962013766288e-02  9.3106807722882587e-02  1.3344415638536511e-01  1.8302204968084754e-01  2.4047581004963864e-01  3.0303776428854745e-01  3.6667552983127777e-01  4.2651392885102801e-01  4.7748074396276358e-01  5.1505027273861914e-01  5.3592611800724221e-01  5.3851716483151002e-01  5.2311347227143923e-01  4.9174366917996293e-01  4.4776857458692731e-01  3.9531671804550689e-01  3.3868553497783510e-01  2.8181811551921437e-01  2.2792931050627357e-01  1.7931052770125563e-01  1.3730238729491270e-01  1.0239681048397446e-01  7.4417863062819251e-02  5.2731947983833224e-02  3.6448253845654713e-02  2.4584605692400910e-02  1.6187780360077453e-02  1.0408280437298412e-02  6.5364788039677770e-03  4.0101624379060901e-03  2.4037342746991413e-03  1.4078024267438975e-03  8.0560253440394036e-04  4.5038329860760436e-04  2.4594923892314296e-04  1.3115500139253443e-04  6.8268755481824361e-05  3.4667292570469762e-05  1.7168310592696096e-05  8.3811529040803425e-06  5.3086163752364739e-06  1.3680099114007041e-11  1.7865448448009506e-11  4.4599467653617197e-11  1.6705688929153967e-10  6.7997152461176190e-10  2.7162678154077807e-09  1.0423018852160917e-08  3.8231737721535566e-08  1.3380931473226756e-07  4.4636045279102017e-07  1.4178115398194439e-06  4.2848820272564972e-06  1.2312728928696166e-05  3.3622247960050358e-05  8.7211602902761246e-05  2.1481915520505044e-04  5.0241028253283459e-04  1.1156469084998399e-03  2.3525258604093495e-03  4.7119253215972701e-03  8.9679831091531801e-03  1.6227685346557778e-02  2.7936424356382765e-02  4.5790427503749870e-02  7.1523858051976905e-02  1.0656692536672377e-01  1.5161649486593889e-01  2.0620933772904712e-01  2.6842014439688189e-01  3.3480284897362489e-01  4.0064703372781613e-01  4.6054094840450494e-01  5.0914424305552153e-01  5.4200787513151327e-01  5.5625950684998959e-01  5.5100659481376590e-01  5.2738364016151595e-01  4.8825905752835796e-01  4.3769296164806554e-01  3.8027994172916268e-01  3.2051411995202816e-01  2.6228400299553345e-01  2.0855648750156019e-01  1.6125919634472993e-01  1.2133079336956826e-01  8.8886447339660224e-02  6.3440365912333041e-02  4.4135153268311640e-02  2.9942719669024766e-02  1.9818002611161727e-02  1.2800895180296423e-02  8.0715602097470376e-03  4.9694775490327229e-03  2.9879492712109696e-03  1.7546510424455916e-03  1.0064225365270202e-03  5.6380419770751399e-04  3.0845213868828424e-04  1.6476910034908291e-04  8.5915040831161782e-05  4.3711965820536891e-05  2.1689775306603835e-05  1.0493109940720911e-05  4.9996585045430108e-06  3.1466785487997050e-06  1.1840091241422653e-11  1.5791787918803608e-11  4.1392009225486994e-11  1.6088701357194786e-10  6.7159645297395381e-10  2.7398282518804776e-09  1.0717271895184862e-08  4.0020823555015703e-08  1.4242401931173059e-07  4.8247244641791021e-07  1.5542964565197593e-06  4.7577821701541032e-06  1.3828548587039780e-05  3.8141544541293939e-05  9.9787556980971095e-05  2.4755881666016488e-04  5.8228306255640858e-04  1.2984856769887986e-03  2.7456496334289635e-03  5.5065515254803460e-03  1.0479136626076508e-02  1.8933368156586802e-02  3.2500493816018043e-02  5.3047945408235958e-02  8.2407982995633622e-02  1.2196653999794196e-01  1.7217419646100024e-01  2.3209535655694649e-01  2.9913951103157022e-01  3.6909978101801361e-01  4.3655528758595219e-01  4.9559349953364662e-01  5.4071082878929766e-01  5.6769033450965889e-01  5.7425644403332476e-01  5.6036698656430373e-01  5.2809996342869747e-01  4.8119289882693922e-01  4.2436580998327728e-01  3.6258771018784575e-01  3.0043090741396056e-01  2.4161043080435393e-01  1.8874702530383694e-01  1.4333914035865197e-01  1.0589359753508117e-01  7.6149672853288303e-02  5.3334270036607366e-02  3.6400269110575902e-02  2.4218993294617845e-02  1.5715469362688236e-02  9.9485029439977616e-03  6.1455208726889348e-03  3.7052105184366803e-03  2.1805832146827263e-03  1.2527318879512375e-03  7.0251313190776681e-04  3.8451048645402286e-04  2.0536313887160746e-04  1.0699179907379687e-04  5.4348350920225145e-05  2.6900054949590949e-05  1.2962500348424353e-05  6.0763475136881385e-06  2.7957628517426463e-06  1.6931116586196619e-06  1.0192805609743748e-11  1.3902244825825345e-11  3.8291526322356071e-11  1.5439193172251800e-10  6.6108294762703406e-10  2.7556429519713463e-09  1.0994505762920027e-08  4.1821474564022239e-08  1.5141554539498716e-07  5.2116251731939449e-07  1.7036045378679658e-06  5.2841587145910572e-06  1.5540644522002721e-05  4.3309308704223847e-05  1.1431583733374851e-04  2.8569443036434504e-04  6.7591207968714108e-04  1.5137761516110290e-03  3.2097710915821383e-03  6.4454515215521587e-03  1.2262880167162466e-02  2.2118183889881519e-02  3.7848106946691447e-02  6.1497024612711539e-02  9.4974975644122384e-02  1.3956788833686104e-01  1.9538822849687865e-01  2.6091257388535061e-01  3.3277187357157773e-01  4.0592038360612370e-01  4.7421395273978512e-01  5.3130693089222236e-01  5.7167378483849773e-01  5.9151601028071243e-01  5.8934408266301752e-01  5.6611578090417991e-01  5.2493186189988128e-01  4.7039705179688601e-01  4.0781787369571715e-01  3.4241757856977112e-01  2.7871053735227347e-01  2.2011443097450742e-01  1.6881162587962908e-01  1.2581907848150611e-01  9.1197592618832715e-02  6.4325974800022070e-02  4.4177388800463346e-02  2.9555622780864602e-02  1.9270521934490525e-02  1.2249486863448114e-02  7.5934914748521836e-03  4.5915783120532199e-03  2.7086028993275873e-03  1.5589209571640590e-03  8.7537680191257408e-04  4.7953021957745901e-04  2.5621329858032196e-04  1.3348063216709756e-04  6.7776034893476004e-05  3.3521279296978746e-05  1.6136860661899038e-05  7.5534810249921563e-06  3.4345445736090011e-06  1.5293127392271525e-06  9.0414752850086867e-07  8.7235805131176553e-12  1.2183803724614233e-11  3.5290895133492089e-11  1.4756207546094360e-10  6.4828664081508895e-10  2.7626635065871609e-09  1.1249734310087336e-08  4.3616855237923233e-08  1.6075098670887934e-07  5.6248120753612519e-07  1.8666277581166821e-06  5.8694912345836790e-06  1.7473968673203258e-05  4.9220573782789835e-05  1.3111274541518955e-04  3.3016551268615486e-04  7.8581690922340062e-04  1.7676612598602843e-03  3.7585638016003485e-03  7.5564805543243208e-03  1.4371202798095496e-02  2.5871009972629141e-02  4.4118187611943339e-02  7.1335435569734248e-02  1.0947933497641793e-01  1.5966279682703072e-01  2.2154800818890305e-01  2.9289121260397399e-01  3.6942527568142997e-01  4.4519786269053951e-01  5.1335633807490100e-01  5.6722893756899506e-01  6.0145007728321753e-01  6.1285606060606967e-01  6.0094334215231959e-01  5.6780779787244839e-01  5.1762277120104572e-01  4.5581981147841544e-01  3.8818144185248132e-01  3.2003769855603531e-01  2.5569587865155069e-01  1.9815360697588846e-01  1.4907447941527344e-01  1.0895901127700286e-01  7.7425724773158192e-02  5.3523180195269485e-02  3.6014212885755008e-02  2.3598853055549898e-02  1.5065061234873011e-02  9.3726008746021928e-03  5.6842355766881410e-03  3.3611381753562452e-03  1.9379698611266349e-03  1.0895820698649638e-03  5.9729606299557608e-04  3.1919397616613063e-04  1.6623466258958077e-04  8.4332828084907115e-05  4.1649985598334054e-05  2.0008950743433965e-05  9.3403854660590136e-06  4.2309542582962012e-06  1.8567309839328433e-06  7.9460053619695562e-07  4.5159397526494503e-07  7.4187501419079935e-12  1.0624686344547686e-11  3.2385938060348770e-11  1.4039780805479296e-10  6.3308861734616377e-10  2.7598423892545328e-09  1.1477522767151302e-08  4.5387079973159167e-08  1.7038458972069628e-07  6.0644359028613278e-07  2.0442274678967818e-06  6.5196054723664262e-06  1.9656240205252464e-05  5.5983860595594979e-05  1.5054652298735643e-04  3.8208126650549925e-04  9.1500175366643864e-04  2.0675124134410801e-03  4.4084877253630595e-03  8.8731708303537490e-03  1.6866490380136896e-02  3.0297796638504442e-02  5.1474625020296268e-02  8.2792985904917848e-02  1.2621051319970120e-01  1.8257293899006236e-01  2.5095682754475979e-01  3.2824855275240516e-01  4.0916124921977265e-01  4.8678644175771724e-01  5.5361487786237007e-01  6.0280285458343330e-01  6.2937033166234957e-01  6.3103172193931312e-01  6.0847155791593655e-01  5.6503945502134634e-01  5.0599162461630542e-01  4.3750132181995971e-01  3.6567834464645210e-01  2.9578833636149382e-01  2.3177575351590199e-01  1.7610360319167392e-01  1.2985385712646610e-01  9.2996393911852729e-02  6.4730020253173343e-02  4.3817059288017657e-02  2.8861168919078119e-02  1.8506275417931914e-02  1.1556473000055524e-02  7.0301478540087036e-03  4.1670812257456405e-03  2.4070520313461815e-03  1.3550097414186156e-03  7.4332147652398403e-04  3.9729596472102728e-04  2.0683625014571714e-04  1.0483921869975209e-04  5.1706104585707014e-05  2.4792977546463934e-05  1.1545769271633070e-05  5.2146335989216829e-06  2.2800798074320653e-06  9.6304021695781418e-07  3.9488882033582391e-07  2.1578699515604351e-07  6.2655035796529955e-12  9.2141879870257000e-12  2.9575278233102221e-11  1.3291018307027276e-10  6.1540189068038284e-10  2.7461589703895658e-09  1.1672032403393757e-08  4.7109020998554358e-08  1.8025569643225114e-07  6.5301914313577485e-07  2.2372022838087973e-06  7.2406232231193942e-06  2.2118093916654121e-05  6.3722797069483886e-05  1.7304552488569728e-04  4.4275141097860777e-04  1.0670513960937553e-03  2.4221852373583238e-03  5.1793826493411162e-03  1.0435938593650638e-02  1.9823676980301852e-02  3.5524899870184756e-02  6.0110668276177420e-02  9.6136200020474891e-02  1.4549629969923331e-01  2.0864977077047647e-01  2.8392633539147216e-01  3.6717714527868461e-01  4.5197803423001037e-01  5.3044315187807489e-01  5.9450652978117857e-01  6.3736152910397426e-01  6.5468405842287336e-01  6.4533060809675946e-01  6.1136642355707982e-01  5.5747494080559357e-01  4.8995566271399710e-01  4.1558892143793230e-01  3.4062618744123990e-01  2.7007981926352836e-01  2.0737715460678927e-01  1.5434780339891860e-01  1.1145216092426730e-01  7.8138443236194802e-02  5.3226918012507202e-02  3.5249497408175845e-02  2.2706860899446048e-02  1.4234230240924637e-02  8.6863211290705046e-03  5.1615036945293772e-03  2.9869512508308898e-03  1.6835340595281957e-03  9.2414881172032384e-04  4.9399431451575598e-04  2.5706271888351924e-04  1.3016829899057473e-04  6.4099627926092562e-05  3.0671317972496496e-05  1.4245035083464949e-05  6.4125275370450463e-06  2.7926459986720719e-06  1.1736657459152651e-06  4.7447023849754726e-07  1.8498176177945731e-07  9.5969864927199323e-08  5.2517603421376810e-12  7.9425202356042605e-12  2.6860148837788451e-11  1.2512157679097927e-10  5.9517829834695573e-10  2.7206509810368547e-09  1.1827091274286674e-08  4.8756174656548710e-08  1.9028656002378567e-07  7.0211970189221561e-07  2.4462455737135617e-06  8.0388752975305517e-06  2.4893144454424117e-05  7.2577694748644350e-05  1.9910707893286495e-04  5.1372119832981348e-04  1.2462430231123737e-03  2.8423219374132465e-03  6.0951743914359436e-03  1.2293519734188617e-02  2.3332782870736684e-02  4.1702943523489015e-02  7.0253849170132346e-02  1.1167320530708649e-01  1.6770562942419856e-01  2.3827267804726376e-01  3.2076789182500820e-01  4.0982897372488170e-01  4.9778980674943535e-01  5.7580694937762467e-01  6.3541781801391439e-01  6.7012336195628375e-01  6.7656876240641939e-01  6.5502701216069925e-01  6.0911226628283577e-01  5.4487174761548396e-01  4.6954926085448340e-01  3.9034578731747882e-01  3.1343646321487811e-01  2.4338242713162561e-01  1.8295069247340570e-01  1.3326223494926603e-01  9.4143284838956898e-02  6.4553575075194589e-02  4.2993057216926839e-02  2.7827938211042430e-02  1.7513996649769100e-02  1.0722272270312288e-02  6.3873349542791936e-03  3.7031774479190428e-03  2.0897604985691248e-03  1.1478420741199437e-03  6.1358481219485014e-04  3.1912260033432682e-04  1.6141597779636670e-04  7.9355487541050407e-05  3.7886800976425522e-05  1.7546840956542214e-05  7.8718491918400373e-06  3.4141815105366859e-06  1.4279648722559189e-06  5.7393719806475733e-07  2.2063087529717225e-07  8.1054974466689470e-08  3.9472320053110938e-08  4.3660634021832334e-12  6.8006595234452934e-12  2.4244139879095143e-11  1.1706608025853256e-10  5.7241537691541110e-10  2.6824504357107305e-09  1.1936290111335622e-08  5.0298579512348115e-08  2.0037990821810054e-07  7.5358435105616576e-07  2.6718854641038005e-06  8.9207437706033180e-06  2.8017833966080123e-05  8.2706643227005531e-05  2.2930577456902813e-04  5.9680744129974716e-04  1.4576667026141225e-03  3.3406851043811096e-03  7.1846629142239375e-03  1.4504571499704315e-02  2.7501712631426766e-02  4.9010960277843851e-02  8.2170967280886700e-02  1.2975803687904869e-01  1.9324963560585329e-01  2.7184381008649888e-01  3.6177915119624954e-01  4.5629420881102006e-01  5.4640132030307620e-01  6.2237567387399517e-01  6.7559118762687553e-01  7.0019304083429379e-01  6.9414580363692779e-01  6.5940894152892171e-01  6.0127102135796695e-01  5.2710767715882201e-01  4.4494099300994655e-01  3.6215560098597394e-01  2.8460800839297506e-01  2.1621238892056990e-01  1.5895381642152889e-01  1.1320013787065104e-01  7.8161186202728730e-02  5.2364940714071440e-02  3.4063363185547368e-02  2.1526793748663352e-02  1.3222659873324121e-02  7.8970222916201396e-03  4.5869478909322699e-03  2.59156656154