<?xml version="1.0"?>
<VTKFile type="UnstructuredGrid"  version="0.1"  >
<UnstructuredGrid>
<Piece  NumberOfPoints="4225" NumberOfCells="8192">
<Points>
<DataArray  type="Float64"  NumberOfComponents="3"  format="ascii">0 0 0  0.015625 0 0  0.03125 0 0  0.046875 0 0  0.0625 0 0  0.078125 0 0  0.09375 0 0  0.109375 0 0  0.125 0 0  0.140625 0 0  0.15625 0 0  0.171875 0 0  0.1875 0 0  0.203125 0 0  0.21875 0 0  0.234375 0 0  0.25 0 0  0.265625 0 0  0.28125 0 0  0.296875 0 0  0.3125 0 0  0.328125 0 0  0.34375 0 0  0.359375 0 0  0.375 0 0  0.390625 0 0  0.40625 0 0  0.421875 0 0  0.4375 0 0  0.453125 0 0  0.46875 0 0  0.484375 0 0  0.5 0 0  0.515625 0 0  0.53125 0 0  0.546875 0 0  0.5625 0 0  0.578125 0 0  0.59375 0 0  0.609375 0 0  0.625 0 0  0.640625 0 0  0.65625 0 0  0.671875 0 0  0.6875 0 0  0.703125 0 0  0.71875 0 0  0.734375 0 0  0.75 0 0  0.765625 0 0  0.78125 0 0  0.796875 0 0  0.8125 0 0  0.828125 0 0  0.84375 0 0  0.859375 0 0  0.875 0 0  0.890625 0 0  0.90625 0 0  0.921875 0 0  0.9375 0 0  0.953125 0 0  0.96875 0 0  0.984375 0 0  1 0 0  0 0.015625 0  0.015625 0.015625 0  0.03125 0.015625 0  0.046875 0.015625 0  0.0625 0.015625 0  0.078125 0.015625 0  0.09375 0.015625 0  0.109375 0.015625 0  0.125 0.015625 0  0.140625 0.015625 0  0.15625 0.015625 0  0.171875 0.015625 0  0.1875 0.015625 0  0.203125 0.015625 0  0.21875 0.015625 0  0.234375 0.015625 0  0.25 0.015625 0  0.265625 0.015625 0  0.28125 0.015625 0  0.296875 0.015625 0  0.3125 0.015625 0  0.328125 0.015625 0  0.34375 0.015625 0  0.359375 0.015625 0  0.375 0.015625 0  0.390625 0.015625 0  0.40625 0.015625 0  0.421875 0.015625 0  0.4375 0.015625 0  0.453125 0.015625 0  0.46875 0.015625 0  0.484375 0.015625 0  0.5 0.015625 0  0.515625 0.015625 0  0.53125 0.015625 0  0.546875 0.015625 0  0.5625 0.015625 0  0.578125 0.015625 0  0.59375 0.015625 0  0.609375 0.015625 0  0.625 0.015625 0  0.640625 0.015625 0  0.65625 0.015625 0  0.671875 0.015625 0  0.6875 0.015625 0  0.703125 0.015625 0  0.71875 0.015625 0  0.734375 0.015625 0  0.75 0.015625 0  0.765625 0.015625 0  0.78125 0.015625 0  0.796875 0.015625 0  0.8125 0.015625 0  0.828125 0.015625 0  0.84375 0.015625 0  0.859375 0.015625 0  0.875 0.015625 0  0.890625 0.015625 0  0.90625 0.015625 0  0.921875 0.015625 0  0.9375 0.015625 0  0.953125 0.015625 0  0.96875 0.015625 0  0.984375 0.015625 0  1 0.015625 0  0 0.03125 0  0.015625 0.03125 0  0.03125 0.03125 0  0.046875 0.03125 0  0.0625 0.03125 0  0.078125 0.03125 0  0.09375 0.03125 0  0.109375 0.03125 0  0.125 0.03125 0  0.140625 0.03125 0  0.15625 0.03125 0  0.171875 0.03125 0  0.1875 0.03125 0  0.203125 0.03125 0  0.21875 0.03125 0  0.234375 0.03125 0  0.25 0.03125 0  0.265625 0.03125 0  0.28125 0.03125 0  0.296875 0.03125 0  0.3125 0.03125 0  0.328125 0.03125 0  0.34375 0.03125 0  0.359375 0.03125 0  0.375 0.03125 0  0.390625 0.03125 0  0.40625 0.03125 0  0.421875 0.03125 0  0.4375 0.03125 0  0.453125 0.03125 0  0.46875 0.03125 0  0.484375 0.03125 0  0.5 0.03125 0  0.515625 0.03125 0  0.53125 0.03125 0  0.546875 0.03125 0  0.5625 0.03125 0  0.578125 0.03125 0  0.59375 0.03125 0  0.609375 0.03125 0  0.625 0.03125 0  0.640625 0.03125 0  0.65625 0.03125 0  0.671875 0.03125 0  0.6875 0.03125 0  0.703125 0.03125 0  0.71875 0.03125 0  0.734375 0.03125 0  0.75 0.03125 0  0.765625 0.03125 0  0.78125 0.03125 0  0.796875 0.03125 0  0.8125 0.03125 0  0.828125 0.03125 0  0.84375 0.03125 0  0.859375 0.03125 0  0.875 0.03125 0  0.890625 0.03125 0  0.90625 0.03125 0  0.921875 0.03125 0  0.9375 0.03125 0  0.953125 0.03125 0  0.96875 0.03125 0  0.984375 0.03125 0  1 0.03125 0  0 0.046875 0  0.015625 0.046875 0  0.03125 0.046875 0  0.046875 0.046875 0  0.0625 0.046875 0  0.078125 0.046875 0  0.09375 0.046875 0  0.109375 0.046875 0  0.125 0.046875 0  0.140625 0.046875 0  0.15625 0.046875 0  0.171875 0.046875 0  0.1875 0.046875 0  0.203125 0.046875 0  0.21875 0.046875 0  0.234375 0.046875 0  0.25 0.046875 0  0.265625 0.046875 0  0.28125 0.046875 0  0.296875 0.046875 0  0.3125 0.046875 0  0.328125 0.046875 0  0.34375 0.046875 0  0.359375 0.046875 0  0.375 0.046875 0  0.390625 0.046875 0  0.40625 0.046875 0  0.421875 0.046875 0  0.4375 0.046875 0  0.453125 0.046875 0  0.46875 0.046875 0  0.484375 0.046875 0  0.5 0.046875 0  0.515625 0.046875 0  0.53125 0.046875 0  0.546875 0.046875 0  0.5625 0.046875 0  0.578125 0.046875 0  0.59375 0.046875 0  0.609375 0.046875 0  0.625 0.046875 0  0.640625 0.046875 0  0.65625 0.046875 0  0.671875 0.046875 0  0.6875 0.046875 0  0.703125 0.046875 0  0.71875 0.046875 0  0.734375 0.046875 0  0.75 0.046875 0  0.765625 0.046875 0  0.78125 0.046875 0  0.796875 0.046875 0  0.8125 0.046875 0  0.828125 0.046875 0  0.84375 0.046875 0  0.859375 0.046875 0  0.875 0.046875 0  0.890625 0.046875 0  0.90625 0.046875 0  0.921875 0.046875 0  0.9375 0.046875 0  0.953125 0.046875 0  0.96875 0.046875 0  0.984375 0.046875 0  1 0.046875 0  0 0.0625 0  0.015625 0.0625 0  0.03125 0.0625 0  0.046875 0.0625 0  0.0625 0.0625 0  0.078125 0.0625 0  0.09375 0.0625 0  0.109375 0.0625 0  0.125 0.0625 0  0.140625 0.0625 0  0.15625 0.0625 0  0.171875 0.0625 0  0.1875 0.0625 0  0.203125 0.0625 0  0.21875 0.0625 0  0.234375 0.0625 0  0.25 0.0625 0  0.265625 0.0625 0  0.28125 0.0625 0  0.296875 0.0625 0  0.3125 0.0625 0  0.328125 0.0625 0  0.34375 0.0625 0  0.359375 0.0625 0  0.375 0.0625 0  0.390625 0.0625 0  0.40625 0.0625 0  0.421875 0.0625 0  0.4375 0.0625 0  0.453125 0.0625 0  0.46875 0.0625 0  0.484375 0.0625 0  0.5 0.0625 0  0.515625 0.0625 0  0.53125 0.0625 0  0.546875 0.0625 0  0.5625 0.0625 0  0.578125 0.0625 0  0.59375 0.0625 0  0.609375 0.0625 0  0.625 0.0625 0  0.640625 0.0625 0  0.65625 0.0625 0  0.671875 0.0625 0  0.6875 0.0625 0  0.703125 0.0625 0  0.71875 0.0625 0  0.734375 0.0625 0  0.75 0.0625 0  0.765625 0.0625 0  0.78125 0.0625 0  0.796875 0.0625 0  0.8125 0.0625 0  0.828125 0.0625 0  0.84375 0.0625 0  0.859375 0.0625 0  0.875 0.0625 0  0.890625 0.0625 0  0.90625 0.0625 0  0.921875 0.0625 0  0.9375 0.0625 0  0.953125 0.0625 0  0.96875 0.0625 0  0.984375 0.0625 0  1 0.0625 0  0 0.078125 0  0.015625 0.078125 0  0.03125 0.078125 0  0.046875 0.078125 0  0.0625 0.078125 0  0.078125 0.078125 0  0.09375 0.078125 0  0.109375 0.078125 0  0.125 0.078125 0  0.140625 0.078125 0  0.15625 0.078125 0  0.171875 0.078125 0  0.1875 0.078125 0  0.203125 0.078125 0  0.21875 0.078125 0  0.234375 0.078125 0  0.25 0.078125 0  0.265625 0.078125 0  0.28125 0.078125 0  0.296875 0.078125 0  0.3125 0.078125 0  0.328125 0.078125 0  0.34375 0.078125 0  0.359375 0.078125 0  0.375 0.078125 0  0.390625 0.078125 0  0.40625 0.078125 0  0.421875 0.078125 0  0.4375 0.078125 0  0.453125 0.078125 0  0.46875 0.078125 0  0.484375 0.078125 0  0.5 0.078125 0  0.515625 0.078125 0  0.53125 0.078125 0  0.546875 0.078125 0  0.5625 0.078125 0  0.578125 0.078125 0  0.59375 0.078125 0  0.609375 0.078125 0  0.625 0.078125 0  0.640625 0.078125 0  0.65625 0.078125 0  0.671875 0.078125 0  0.6875 0.078125 0  0.703125 0.078125 0  0.71875 0.078125 0  0.734375 0.078125 0  0.75 0.078125 0  0.765625 0.078125 0  0.78125 0.078125 0  0.796875 0.078125 0  0.8125 0.078125 0  0.828125 0.078125 0  0.84375 0.078125 0  0.859375 0.078125 0  0.875 0.078125 0  0.890625 0.078125 0  0.90625 0.078125 0  0.921875 0.078125 0  0.9375 0.078125 0  0.953125 0.078125 0  0.96875 0.078125 0  0.984375 0.078125 0  1 0.078125 0  0 0.09375 0  0.015625 0.09375 0  0.03125 0.09375 0  0.046875 0.09375 0  0.0625 0.09375 0  0.078125 0.09375 0  0.09375 0.09375 0  0.109375 0.09375 0  0.125 0.09375 0  0.140625 0.09375 0  0.15625 0.09375 0  0.171875 0.09375 0  0.1875 0.09375 0  0.203125 0.09375 0  0.21875 0.09375 0  0.234375 0.09375 0  0.25 0.09375 0  0.265625 0.09375 0  0.28125 0.09375 0  0.296875 0.09375 0  0.3125 0.09375 0  0.328125 0.09375 0  0.34375 0.09375 0  0.359375 0.09375 0  0.375 0.09375 0  0.390625 0.09375 0  0.40625 0.09375 0  0.421875 0.09375 0  0.4375 0.09375 0  0.453125 0.09375 0  0.46875 0.09375 0  0.484375 0.09375 0  0.5 0.09375 0  0.515625 0.09375 0  0.53125 0.09375 0  0.546875 0.09375 0  0.5625 0.09375 0  0.578125 0.09375 0  0.59375 0.09375 0  0.609375 0.09375 0  0.625 0.09375 0  0.640625 0.09375 0  0.65625 0.09375 0  0.671875 0.09375 0  0.6875 0.09375 0  0.703125 0.09375 0  0.71875 0.09375 0  0.734375 0.09375 0  0.75 0.09375 0  0.765625 0.09375 0  0.78125 0.09375 0  0.796875 0.09375 0  0.8125 0.09375 0  0.828125 0.09375 0  0.84375 0.09375 0  0.859375 0.09375 0  0.875 0.09375 0  0.890625 0.09375 0  0.90625 0.09375 0  0.921875 0.09375 0  0.9375 0.09375 0  0.953125 0.09375 0  0.96875 0.09375 0  0.984375 0.09375 0  1 0.09375 0  0 0.109375 0  0.015625 0.109375 0  0.03125 0.109375 0  0.046875 0.109375 0  0.0625 0.109375 0  0.078125 0.109375 0  0.09375 0.109375 0  0.109375 0.109375 0  0.125 0.109375 0  0.140625 0.109375 0  0.15625 0.109375 0  0.171875 0.109375 0  0.1875 0.109375 0  0.203125 0.109375 0  0.21875 0.109375 0  0.234375 0.109375 0  0.25 0.109375 0  0.265625 0.109375 0  0.28125 0.109375 0  0.296875 0.109375 0  0.3125 0.109375 0  0.328125 0.109375 0  0.34375 0.109375 0  0.359375 0.109375 0  0.375 0.109375 0  0.390625 0.109375 0  0.40625 0.109375 0  0.421875 0.109375 0  0.4375 0.109375 0  0.453125 0.109375 0  0.46875 0.109375 0  0.484375 0.109375 0  0.5 0.109375 0  0.515625 0.109375 0  0.53125 0.109375 0  0.546875 0.109375 0  0.5625 0.109375 0  0.578125 0.109375 0  0.59375 0.109375 0  0.609375 0.109375 0  0.625 0.109375 0  0.640625 0.109375 0  0.65625 0.109375 0  0.671875 0.109375 0  0.6875 0.109375 0  0.703125 0.109375 0  0.71875 0.109375 0  0.734375 0.109375 0  0.75 0.109375 0  0.765625 0.109375 0  0.78125 0.109375 0  0.796875 0.109375 0  0.8125 0.109375 0  0.828125 0.109375 0  0.84375 0.109375 0  0.859375 0.109375 0  0.875 0.109375 0  0.890625 0.109375 0  0.90625 0.109375 0  0.921875 0.109375 0  0.9375 0.109375 0  0.953125 0.109375 0  0.96875 0.109375 0  0.984375 0.109375 0  1 0.109375 0  0 0.125 0  0.015625 0.125 0  0.03125 0.125 0  0.046875 0.125 0  0.0625 0.125 0  0.078125 0.125 0  0.09375 0.125 0  0.109375 0.125 0  0.125 0.12
[...]
<PointData  Scalars="f_14444"> 
<DataArray  type="Float64"  Name="f_14444"  format="ascii">-1.8587792533151457e-21  -1.8086435028909995e-21  -1.6274181811346854e-21  -1.4637990986744280e-21  -1.8195640545106404e-21  -2.5025735304390879e-21  -1.7151743167319399e-21  1.0302119696155211e-21  6.4762414555125701e-22  -7.7447777521789413e-21  -1.6655085290883434e-20  -1.9853429542723924e-20  -5.7128060328704117e-20  -2.2287915209467778e-19  -5.8760433218336425e-19  -1.0410308969414863e-18  -8.3640130721840846e-19  2.9121315406999974e-18  1.8694085986291539e-17  6.6201166962666256e-17  1.8269100769691044e-16  4.2668288493165584e-16  8.7369400055406728e-16  1.5994260948234795e-15  2.6515506209280986e-15  4.0203519322018303e-15  5.6241335955782156e-15  7.3210056213064793e-15  8.9452448361643438e-15  1.0352571403851136e-14  1.1454211747555473e-14  1.2227259145546260e-14  1.2702352489106777e-14  1.2939672093033992e-14  1.3005738097306564e-14  1.2958402753832974e-14  1.2841017319351795e-14  1.2682892527671219e-14  1.2502498302789595e-14  1.2310968738112574e-14  1.2114857608674699e-14  1.1917982484680708e-14  1.1722555471192289e-14  1.1529848184252804e-14  1.1340578192305901e-14  1.1155134567874680e-14  1.0973710838483567e-14  1.0796384075014082e-14  1.0623162301666675e-14  1.0454012854566279e-14  1.0288879958077058e-14  1.0127694064912739e-14  9.9703804569586131e-15  9.8168582566825940e-15  9.6670514047618679e-15  9.5208756124831387e-15  9.3782607663197139e-15  9.2391220112577620e-15  9.1033974413486043e-15  8.9710089877209161e-15  8.8418927504786856e-15  8.7158059740231297e-15  8.5916753453502117e-15  8.4651483094529757e-15  8.4160645927106954e-15  -1.8149126151804298e-21  -1.7494701711734931e-21  -1.6203991114914396e-21  -1.6462132400553598e-21  -1.9949106837108437e-21  -1.9866396961448626e-21  -6.6170696656931074e-22  3.3240590724935559e-22  -2.5974365365340758e-21  -5.7615627125762590e-21  6.6911909801067446e-21  5.6662477620239590e-20  2.2247156238349707e-19  8.9895600158381381e-19  3.5024444988950830e-18  1.2185047373563286e-17  3.7823901472067369e-17  1.0590281573266741e-16  2.6863284563215661e-16  6.1803268524486520e-16  1.2911491468309022e-15  2.4538106001396574e-15  4.2515952768115031e-15  6.7325790106165986e-15  9.7724772590211762e-15  1.3050274533790563e-14  1.6109470772106135e-14  1.8494730443094568e-14  1.9903839067782462e-14  2.0279123810613909e-14  1.9796235415216528e-14  1.8767466217592346e-14  1.7518642870559114e-14  1.6298134418700887e-14  1.5243752069039456e-14  1.4397733464900680e-14  1.3743201953026889e-14  1.3238963787581653e-14  1.2841967751157162e-14  1.2517292990919034e-14  1.2240107984657996e-14  1.1994057115654681e-14  1.1768823198164302e-14  1.1558033842401965e-14  1.1357778477429299e-14  1.1165649774218350e-14  1.0980150813776538e-14  1.0800335353411260e-14  1.0625590954192967e-14  1.0455508130330162e-14  1.0289801938636040e-14  1.0128263063134550e-14  9.9707319007121866e-15  9.8170747069859368e-15  9.6671850769500209e-15  9.5209563373662331e-15  9.3783108623832858e-15  9.2391498315815370e-15  9.1034149657766557e-15  8.9710131575816878e-15  8.8418868466118688e-15  8.7158341483741312e-15  8.5922459815823641e-15  8.4689297111722120e-15  8.4092885836602397e-15  -1.6305836916859504e-21  -1.6266588846246668e-21  -1.7423600279280553e-21  -2.0402541721893539e-21  -1.7315390948479264e-21  -1.5958134626099984e-22  2.4624570067999105e-23  -4.6887738636681189e-21  -4.5198071632532962e-21  3.2449759584903708e-20  1.7344579575843396e-19  7.2931693286801143e-19  3.1790042346409398e-18  1.3007840646123769e-17  4.7690325561987012e-17  1.5742492907918212e-16  4.7130774108786904e-16  1.2815909924875609e-15  3.1641164290294389e-15  7.0937928118915377e-15  1.4452193332356942e-14  2.6779584171922531e-14  4.5175841162872357e-14  6.9458615025164112e-14  9.7469024469590986e-14  1.2505302465154505e-13  1.4702413179515226e-13  1.5885954013528348e-13  1.5835012239829983e-13  1.4634833941859853e-13  1.2625290598518154e-13  1.0258878011534498e-13  7.9468484488675434e-14  5.9612702429597408e-14  4.4150172602373582e-14  3.2987109068682323e-14  2.5373587651593622e-14  2.0380519528743004e-14  1.7177331761313169e-14  1.5133323702085977e-14  1.3814806903943620e-14  1.2941612458429529e-14  1.2339450956536491e-14  1.1902138636133829e-14  1.1565628876147440e-14  1.1291432045487852e-14  1.1056423196814798e-14  1.0846686644545638e-14  1.0653824793883043e-14  1.0472748863173083e-14  1.0300357697218200e-14  1.0134743269719691e-14  9.9747226028357144e-15  9.8195371132557496e-15  9.6687133566235249e-15  9.5218999117647832e-15  9.3789065322989377e-15  9.2395104641808540e-15  9.1036532641289143e-15  8.9711456840054150e-15  8.8419804119059085e-15  8.7159164421799632e-15  8.5926631200746228e-15  8.4705413843702195e-15  8.4097544106891558e-15  -1.4562354390525686e-21  -1.6818039264679835e-21  -2.0875453120168207e-21  -1.7218438409990356e-21  3.5478412242612318e-22  6.1015329932272341e-22  -6.5533879429476610e-21  -6.3050853226831778e-21  6.0515170273424591e-20  3.4827876854943800e-19  1.6211032021202593e-18  7.7779229599937623e-18  3.4903372634664991e-17  1.4052328427844211e-16  5.0992439649600362e-16  1.6781110419335959e-15  5.0135875090824111e-15  1.3593424254632670e-14  3.3450494545342458e-14  7.4748178795184954e-14  1.5177729028087357e-13  2.8023476762035571e-13  4.7085962163345353e-13  7.2067144136521479e-13  1.0059655193772719e-12  1.2825580594844142e-12  1.4963177007532410e-12  1.6011378905496652e-12  1.5759979582319078e-12  1.4321856334225401e-12  1.2071812097022264e-12  9.4930571288642791e-13  7.0154721591466324e-13  4.9159771719923097e-13  3.3018532319072160e-13  2.1529764826180327e-13  1.3829990929594697e-13  8.8963736782020159e-14  5.8322181362130666e-14  3.9653809933780342e-14  2.8386280828053235e-14  2.1595935301414557e-14  1.7483060742644425e-14  1.4963401121604960e-14  1.3390762117360484e-14  1.2381763198635073e-14  1.1709222665133094e-14  1.1238464357499196e-14  1.0889556216791888e-14  1.0614978900468821e-14  1.0386425657593989e-14  1.0186986974649698e-14  1.0006542053758287e-14  9.8389774532564005e-15  9.6806468503968962e-15  9.5292286717888556e-15  9.3834643056034270e-15  9.2422977539533700e-15  9.1054420807028265e-15  8.9722019166132874e-15  8.8427082225516653e-15  8.7163418691924640e-15  8.5931947242295979e-15  8.4715108926219245e-15  8.4108180173254003e-15  -1.9337447716067235e-21  -2.1137759942095240e-21  -1.7117257950562968e-21  5.4234494743880533e-22  9.3048761359201004e-22  -7.8863057157521930e-21  -7.8070420387681398e-21  9.0101204922408483e-20  5.6558703563768087e-19  2.9226347227234172e-18  1.5485080046097970e-17  7.6447462301803594e-17  3.3879706672319273e-16  1.3541064878567433e-15  4.9071092401662172e-15  1.6136039957721969e-14  4.8130331558427449e-14  1.3023601975679650e-13  3.1983462528834348e-13  7.1322953715417511e-13  1.4450447542727081e-12  2.6616746320273559e-12  4.4604997639006798e-12  6.8073272678564984e-12  9.4718944151923276e-12  1.2033237547054288e-11  1.3982330048432246e-11  1.4893032722320156e-11  1.4581051135833411e-11  1.3167219944129339e-11  1.1014598497101961e-11  8.5808159016054593e-12  6.2661571962017518e-12  4.3227516081995228e-12  2.8424919557118690e-12  1.7993585875843378e-12  1.1079354508288237e-12  6.7040098200290239e-13  4.0250744159020841e-13  2.4196905018801555e-13  1.4695093565721805e-13  9.1040814589994601e-14  5.8191165582485894e-14  3.8863304127493108e-14  2.7450050928485732e-14  2.0670671208181022e-14  1.6608009314854320e-14  1.4141276932057298e-14  1.2614472308961758e-14  1.1643027302014650e-14  1.1001084190936210e-14  1.0555711990353176e-14  1.0228521233418342e-14  9.9730901384885185e-15  9.7620238601669933e-15  9.5787341789216265e-15  9.4138330708966339e-15  9.2608096786576135e-15  9.1170603117364381e-15  8.9791571380871388e-15  8.8473197548454641e-15  8.7189619713743239e-15  8.5952295029272813e-15  8.4729424585103351e-15  8.4122469040941107e-15  -2.8299981936805943e-21  -1.9986683811460245e-21  3.2600307762919183e-22  7.9850463930261633e-22  -8.7155144393195724e-21  -9.1485092955669218e-21  1.1143321617471839e-19  7.5974201713117276e-19  4.3283685884541536e-18  2.5319465335657177e-17  1.3768848902783050e-16  6.7212269840732441e-16  2.9597106709980179e-15  1.1814666086173158e-14  4.2778110593371790e-14  1.4044444506258563e-13  4.1812356470437729e-13  1.1292311768289263e-12  2.7677332171016677e-12  6.1591469017257919e-12  1.2450635826630760e-11  2.2877256538763075e-11  3.8237005256900228e-11  5.8187366908591321e-11  8.0709484953149542e-11  1.0218116099409908e-10  1.1828015242431614e-10  1.2545183887726317e-10  1.2224460972892231e-10  1.0980616494709467e-10  9.1303289921701432e-11  7.0641593341134710e-11  5.1179535260399269e-11  3.4983879467120713e-11  2.2758463822321242e-11  1.4225009976886710e-11  8.6268327933985711e-12  5.1238657719652404e-12  3.0049981031003230e-12  1.7516662826340295e-12  1.0200057186728092e-12  5.9568376640502344e-13  3.5017545334808565e-13  2.0810539765479958e-13  1.2576432296999925e-13  7.7923863352796548e-14  5.0038730992640567e-14  3.3717672812453441e-14  2.4112816693692191e-14  1.8418300468907560e-14  1.5006799453618203e-14  1.2932367279784383e-14  1.1643866985785747e-14  1.0819175504887258e-14  1.0269945370980809e-14  9.8847239412801866e-15  9.5993570698295780e-15  9.3731554299678999e-15  9.1863961560839180e-15  9.0207828960561405e-15  8.8741408275962321e-15  8.7343534893998281e-15  8.6061419788892155e-15  8.4788672063361160e-15  8.4171067953018401e-15  -1.4873552842480477e-21  -3.8363018477785577e-23  3.0149132525485742e-22  -8.7491500850972291e-21  -1.0171269182155038e-20  1.1451502492799598e-19  8.4548167670912587e-19  5.2726335586372265e-18  3.4031974999484908e-17  2.0403363633761631e-16  1.0975101097886182e-15  5.3256773279329508e-15  2.3422782944055133e-14  9.3410691846041404e-14  3.3767438476117058e-13  1.1065450384452577e-12  3.2881046173629511e-12  8.8629737187089060e-12  2.1678314493232741e-11  4.8134995092989002e-11  9.7073472552897365e-11  1.7791220910761192e-10  2.9654680603862913e-10  4.4993382208911947e-10  6.2207852247945777e-10  7.8481702538619695e-10  9.0499610094645042e-10  9.5585083165038118e-10  9.2712523598404306e-10  8.2855150081971278e-10  6.8504228495717085e-10  5.2667630703242150e-10  3.7888047936074806e-10  2.5693442891308209e-10  1.6566571601644941e-10  1.0252696334476585e-10  6.1501072355489702e-11  3.6093006773744110e-11  2.0892643256204282e-11  1.2005293170314046e-11  6.8791258127478888e-12  3.9424336761238193e-12  2.2641265191392678e-12  1.3048729613329691e-12  7.5580025058526422e-13  4.4083204355436241e-13  2.5968725411341758e-13  1.5520255465249504e-13  9.4737429187998123e-14  5.9614776363629697e-14  3.9122529966593035e-14  2.7101479474395031e-14  2.0000942657893950e-14  1.5767869477322329e-14  1.3212750401921600e-14  1.1641670912776994e-14  1.0654089615795033e-14  1.0007231788361280e-14  9.5726809311573148e-15  9.2523875744645040e-15  9.0202074337961024e-15  8.8189089982596890e-15  8.6640160141516667e-15  8.5095539477136757e-15  8.4411032922400416e-15  2.7870661092967697e-21  9.5585939722162020e-22  -7.4338053883926182e-21  -1.0163868641353867e-20  9.8143151037628102e-20  7.8022483165932078e-19  5.2828884043684818e-18  3.7605386635049320e-17  2.4877153802028687e-16  1.4750614020772182e-15  7.8886482635707919e-15  3.8232740753009383e-14  1.6798078879836777e-13  6.6882155241888236e-13  2.4132571977783974e-12  7.8932471917793176e-12  2.3409485651688090e-11  6.2970549657126409e-11  1.5368650011764890e-10  3.4045544569865836e-10  6.8489158341392163e-10  1.2519142804347619e-09  2.0807831223016013e-09  3.1474252404622699e-09  4.3373543697161897e-09  5.4526927906724763e-09  6.2636973993748196e-09  6.5884043098035476e-09  6.3618326826256757e-09  5.6577551136389640e-09  4.6529154501660332e-09  3.5563800604110165e-09  2.5419377658375078e-09  1.7115668487149294e-09  1.0949634595027307e-09  6.7185994534691206e-10  3.9929205759100200e-10  2.3202416040603620e-10  1.3292263971262992e-10  7.5565447284651156e-11  4.2825954472651325e-11  2.4267022637735202e-11  1.3771646712874821e-11  7.8348872568054096e-12  4.4712558043015634e-12  2.5610747143522242e-12  1.4733865668813508e-12  8.5223527983636460e-13  4.9641021127904055e-13  2.9190360934108848e-13  1.7395055905286702e-13  1.0565886678582786e-13  6.5953409104689741e-14  4.2757736722334987e-14  2.9132707080417329e-14  2.1071618795466638e-14  1.6268042381350040e-14  1.3358913185002965e-14  1.1593772551596222e-14  1.0460526213505233e-14  9.7697387078681731e-15  9.2551627602184906e-15  8.9553424315364293e-15  8.6645456886089810e-15  8.5603558466843901e-15  1.2648294337395586e-21  -4.8162053631797275e-21  -8.4290978849831246e-21  7.0779095561602159e-20  5.9854118046515776e-19  4.3531035592828140e-18  3.4158488109583129e-17  2.4957785236981754e-16  1.6317497511868381e-15  9.6187442585355979e-15  5.1379064306840635e-14  2.4875334693229911e-13  1.0911364438517480e-12  4.3363278113131460e-12  1.5617021328457808e-11  5.0981379716880533e-11  1.5089111689292421e-10  4.0501415853881533e-10  9.8621596008172930e-10  2.1794141281929793e-09  4.3729929277641410e-09  7.9714506070992515e-09  1.3210471240064000e-08  1.9920196680917622e-08  2.7360423379454965e-08  3.4274890276544345e-08  3.9225077001858387e-08  4.1093598781761708e-08  3.9511188193364959e-08  3.4978109614090286e-08  2.8625037130050684e-08  2.1763677001594449e-08  1.5466919637185107e-08  1.0349896127543099e-08  6.5768067109545923e-09  4.0061909473223544e-09  2.3624287449009800e-09  1.3615406506191013e-09  7.7338351174551166e-10  4.3586116440893225e-10  2.4487442571435588e-10  1.3755536267120952e-10  7.7390495120526870e-11  4.3647879362170319e-11  2.4689472739931356e-11  1.4010869417323319e-11  7.9787978493259935e-12  4.5610156769439663e-12  2.6182867383441163e-12  1.5103157674451256e-12  8.7622363384852353e-13  5.1201639383996216e-13  3.0203091250799614e-13  1.8047768692016480e-13  1.0981865500753914e-13  6.8547408628282546e-14  4.4337568754046479e-14  3.0014774017326378e-14  2.1556260458764618e-14  1.6394622857468900e-14  1.3404766799949945e-14  1.1377702111797569e-14  1.0344988420847853e-14  9.4077931662541674e-15  9.1261064661506871e-15  -1.3509740052803792e-20  -9.8053473568648629e-21  4.2066106562577462e-20  3.8294750540720829e-19  2.9492592668015251e-18  2.5498685152806805e-17  2.0603193979400484e-16  1.4858029216515865e-15  9.6544911385687328e-15  5.6844219734775092e-14  3.0332432240447560e-13  1.4661249727816028e-12  6.4190602962927325e-12  2.5462237812585593e-11  9.1523728553061983e-11  2.9817047236762882e-10  8.8060811604541350e-10  2.3583172057405339e-09  5.7287779660880135e-09  1.2627832684961739e-08  2.5269936875997742e-08  4.5933903301269640e-08  7.5895712993370205e-08  1.1408445454282658e-07  1.5617785034384527e-07  1.9496889230189798e-07  2.2231736317972381e-07  2.3202250157013113e-07  2.2220072299412397e-07  1.9588860587189986e-07  1.5960858314355658e-07  1.2079194909367230e-07  8.5425674826369772e-08  5.6867827487579784e-08  3.5937286432147234e-08  2.1762518001638423e-08  1.2753784193488726e-08  7.3028733268841601e-09  4.1205903973691143e-09  2.3066270596341811e-09  1.2871850685499041e-09  7.1824941348834176e-10  4.0144905476996766e-10  2.2495458798169245e-10  1.2643375320991092e-10  7.1292037312887245e-11  4.0336863700641590e-11  2.2904102541309034e-11  1.3054147073295434e-11  7.4696310591874754e-12  4.2922676615120270e-12  2.4778959656333919e-12  1.4379434525477223e-12  8.3955368853855828e-13  4.9386370924863897e-13  2.9330549345190435e-13  1.7648882082357780e-13  1.0802854805540707e-13  6.7922901931992741e-14  4.3917316356684406e-14  3.0099141716869152e-14  2.1144614088560423e-14  1.6636556072922726e-14  1.2789701980426947e-14  1.1678304325794907e-14  -2.1579860024512344e-20  1.3253015062009649e-20  2.0189150412717896e-19  1.6405898391692231e-18  1.5633472423219510e-17  1.3996093641859487e-16  1.1137322926885271e-15  7.9774691962053605e-15  5.1778937578842564e-14  3.0456593091803038e-13  1.6224813673609367e-12  7.8276108521149208e-12  3.4206535063323139e-11  1.3542327099720249e-10  4.8578860438983180e-10  1.5792321108551652e-09  4.6535250641762145e-09  1.2432794125985871e-08  3.0126049748626936e-08  6.6231857063405701e-08  1.3217321159650419e-07  2.3956172455357025e-07  3.9463095707773609e-07  5.9134035790258351e-07  8.0689696150579296e-07  1.0039357151779164e-06  1.1408135079681774e-06  1.1864109473899015e-06  1.1320896159024023e-06  9.9435857082147078e-07  8.0715302949326101e-07  6.0850851668258463e-07  4.2864944320072051e-07  2.8419251574189702e-07  1.7883864746807673e-07  1.0782703454441513e-07  6.2906240422600253e-08  3.5853287370352886e-08  2.0134402188741135e-08  1.1217281282933448e-08  6.2300371981657912e-09  3.4600958651166115e-09  1.9250304968173888e-09  1.0738107799637263e-09  6.0082527033142005e-10  3.3728442582592843e-10  1.8999099284235611e-10  1.0740092079534611e-10  6.0935433988146527e-11  3.4703325231052264e-11  1.9841350739415551e-11  1.1390479994872066e-11  6.5671154119697940e-12  3.8035687293822593e-12  2.2139523967463417e-12  1.2958311396279516e-12  7.6344850562866477e-13  4.5312868049081032e-13  2.7203455215920596e-13  1.6471346008645960e-13  1.0282038693952365e-13  6.3743860646676036e-14  4.3715231202411979e-14  2.7414586848702472e-14  2.2637896253952563e-14  2.7573514027944887e-21  8.4017529027571752e-20  7.4393476213377574e-19  7.8610420818611295e-18  7.8240580039786628e-17  6.8736950690110218e-16  5.4272429981505918e-15  3.8835265119381346e-14  2.5183853184584987e-13  1.4788553595718618e-12  7.8632583353877313e-12  3.7864029791639484e-11  1.6514379628769425e-10  6.5246999503671700e-10  2.3355059835307561e-09  7.5752807832258825e-09  2.2269281384762429e-08  5.9349212995209760e-08  1.4343667482238844e-07  3.1449015855046897e-07  6.2583259526372771e-07  1.1310006263257299e-06  1.8574972529735297e-06  2.7748105035785322e-06  3.7743958562489557e-06  4.6811483781603085e-06  5.3023871068237936e-06  5.4967377022292986e-06  5.2284825596614158e-06  4.5780709320005085e-06  3.7048059262935755e-06  2.7846789760314556e-06  1.9558660478942414e-06  1.2930203249598509e-06  8.1139685029389649e-07  4.8786178493961840e-07  2.8383943351884293e-07  1.6133424609710672e-07  9.0356985709113185e-08  5.0204508635429612e-08  2.7808981163951868e-08  1.5403840488697444e-08  8.5473329927718715e-09  4.7552763551319541e-09  2.6536897999183901e-09  1.4857527595129650e-09  8.3468111474127741e-10  4.7056074560157298e-10  2.6623962604213868e-10  1.5119356856611762e-10  8.6186991935445077e-11  4.9322576102189981e-11  2.8339926788444651e-11  1.6351668115868785e-11  9.4757090734349061e-12  5.5161511637495241e-12  3.2269903622240331e-12  1.8972981534091067e-12  1.1232096942209734e-12  6.6728618563449365e-13  4.0368632873895443e-13  2.4017199137522279e-13  1.5465822456358696e-13  8.7615153841673936e-14  6.7497083523990965e-14  8.3950711865218798e-21  2.6099923708055237e-19  3.2252549542177711e-18  3.5985624808650570e-17  3.4938410502485870e-16  3.0405564878565013e-15  2.3986607068063373e-14  1.7150862494945783e-13  1.1103422422693087e-12  6.5077102812765529e-12  3.4536086239298524e-11  1.6597698029338121e-10  7.2242436876231147e-10  2.8480842067265410e-09  1.0171609495445894e-08  3.2913830054113174e-08  9.6518539372036578e-08  2.5656552550939158e-07  6.1841235200793320e-07  1.3521320168860835e-06  2.6830518155585344e-06  4.8346405233517440e-06  7.9166267778769364e-06  1.1790887412387452e-05  1.5990582078177841e-05  1.9773731827668807e-05  2.2333503464028718e-05  2.3087862065496832e-05  2.1903110749516315e-05  1.9130909928389369e-05  1.5446334151775491e-05  1.1586083464243426e-05  8.1227956853883128e-06  5.3614899636776869e-06  3.3599814436142943e-06  2.0180325192286708e-06  1.1730693137815759e-06  6.6629919786548506e-07  3.7294450959686071e-07  2.0710376229903316e-07  1.1465537317817737e-07  6.3472765059008414e-08  3.5197546541655834e-08  1.9568102334549966e-08  1.0911343222214310e-08  6.1036700823215997e-09  3.4256323986414140e-09  1.9