<?xml version="1.0"?>
<VTKFile type="UnstructuredGrid"  version="0.1"  >
<UnstructuredGrid>
<Piece  NumberOfPoints="4225" NumberOfCells="8192">
<Points>
<DataArray  type="Float64"  NumberOfComponents="3"  format="ascii">0 0 0  0.015625 0 0  0.03125 0 0  0.046875 0 0  0.0625 0 0  0.078125 0 0  0.09375 0 0  0.109375 0 0  0.125 0 0  0.140625 0 0  0.15625 0 0  0.171875 0 0  0.1875 0 0  0.203125 0 0  0.21875 0 0  0.234375 0 0  0.25 0 0  0.265625 0 0  0.28125 0 0  0.296875 0 0  0.3125 0 0  0.328125 0 0  0.34375 0 0  0.359375 0 0  0.375 0 0  0.390625 0 0  0.40625 0 0  0.421875 0 0  0.4375 0 0  0.453125 0 0  0.46875 0 0  0.484375 0 0  0.5 0 0  0.515625 0 0  0.53125 0 0  0.546875 0 0  0.5625 0 0  0.578125 0 0  0.59375 0 0  0.609375 0 0  0.625 0 0  0.640625 0 0  0.65625 0 0  0.671875 0 0  0.6875 0 0  0.703125 0 0  0.71875 0 0  0.734375 0 0  0.75 0 0  0.765625 0 0  0.78125 0 0  0.796875 0 0  0.8125 0 0  0.828125 0 0  0.84375 0 0  0.859375 0 0  0.875 0 0  0.890625 0 0  0.90625 0 0  0.921875 0 0  0.9375 0 0  0.953125 0 0  0.96875 0 0  0.984375 0 0  1 0 0  0 0.015625 0  0.015625 0.015625 0  0.03125 0.015625 0  0.046875 0.015625 0  0.0625 0.015625 0  0.078125 0.015625 0  0.09375 0.015625 0  0.109375 0.015625 0  0.125 0.015625 0  0.140625 0.015625 0  0.15625 0.015625 0  0.171875 0.015625 0  0.1875 0.015625 0  0.203125 0.015625 0  0.21875 0.015625 0  0.234375 0.015625 0  0.25 0.015625 0  0.265625 0.015625 0  0.28125 0.015625 0  0.296875 0.015625 0  0.3125 0.015625 0  0.328125 0.015625 0  0.34375 0.015625 0  0.359375 0.015625 0  0.375 0.015625 0  0.390625 0.015625 0  0.40625 0.015625 0  0.421875 0.015625 0  0.4375 0.015625 0  0.453125 0.015625 0  0.46875 0.015625 0  0.484375 0.015625 0  0.5 0.015625 0  0.515625 0.015625 0  0.53125 0.015625 0  0.546875 0.015625 0  0.5625 0.015625 0  0.578125 0.015625 0  0.59375 0.015625 0  0.609375 0.015625 0  0.625 0.015625 0  0.640625 0.015625 0  0.65625 0.015625 0  0.671875 0.015625 0  0.6875 0.015625 0  0.703125 0.015625 0  0.71875 0.015625 0  0.734375 0.015625 0  0.75 0.015625 0  0.765625 0.015625 0  0.78125 0.015625 0  0.796875 0.015625 0  0.8125 0.015625 0  0.828125 0.015625 0  0.84375 0.015625 0  0.859375 0.015625 0  0.875 0.015625 0  0.890625 0.015625 0  0.90625 0.015625 0  0.921875 0.015625 0  0.9375 0.015625 0  0.953125 0.015625 0  0.96875 0.015625 0  0.984375 0.015625 0  1 0.015625 0  0 0.03125 0  0.015625 0.03125 0  0.03125 0.03125 0  0.046875 0.03125 0  0.0625 0.03125 0  0.078125 0.03125 0  0.09375 0.03125 0  0.109375 0.03125 0  0.125 0.03125 0  0.140625 0.03125 0  0.15625 0.03125 0  0.171875 0.03125 0  0.1875 0.03125 0  0.203125 0.03125 0  0.21875 0.03125 0  0.234375 0.03125 0  0.25 0.03125 0  0.265625 0.03125 0  0.28125 0.03125 0  0.296875 0.03125 0  0.3125 0.03125 0  0.328125 0.03125 0  0.34375 0.03125 0  0.359375 0.03125 0  0.375 0.03125 0  0.390625 0.03125 0  0.40625 0.03125 0  0.421875 0.03125 0  0.4375 0.03125 0  0.453125 0.03125 0  0.46875 0.03125 0  0.484375 0.03125 0  0.5 0.03125 0  0.515625 0.03125 0  0.53125 0.03125 0  0.546875 0.03125 0  0.5625 0.03125 0  0.578125 0.03125 0  0.59375 0.03125 0  0.609375 0.03125 0  0.625 0.03125 0  0.640625 0.03125 0  0.65625 0.03125 0  0.671875 0.03125 0  0.6875 0.03125 0  0.703125 0.03125 0  0.71875 0.03125 0  0.734375 0.03125 0  0.75 0.03125 0  0.765625 0.03125 0  0.78125 0.03125 0  0.796875 0.03125 0  0.8125 0.03125 0  0.828125 0.03125 0  0.84375 0.03125 0  0.859375 0.03125 0  0.875 0.03125 0  0.890625 0.03125 0  0.90625 0.03125 0  0.921875 0.03125 0  0.9375 0.03125 0  0.953125 0.03125 0  0.96875 0.03125 0  0.984375 0.03125 0  1 0.03125 0  0 0.046875 0  0.015625 0.046875 0  0.03125 0.046875 0  0.046875 0.046875 0  0.0625 0.046875 0  0.078125 0.046875 0  0.09375 0.046875 0  0.109375 0.046875 0  0.125 0.046875 0  0.140625 0.046875 0  0.15625 0.046875 0  0.171875 0.046875 0  0.1875 0.046875 0  0.203125 0.046875 0  0.21875 0.046875 0  0.234375 0.046875 0  0.25 0.046875 0  0.265625 0.046875 0  0.28125 0.046875 0  0.296875 0.046875 0  0.3125 0.046875 0  0.328125 0.046875 0  0.34375 0.046875 0  0.359375 0.046875 0  0.375 0.046875 0  0.390625 0.046875 0  0.40625 0.046875 0  0.421875 0.046875 0  0.4375 0.046875 0  0.453125 0.046875 0  0.46875 0.046875 0  0.484375 0.046875 0  0.5 0.046875 0  0.515625 0.046875 0  0.53125 0.046875 0  0.546875 0.046875 0  0.5625 0.046875 0  0.578125 0.046875 0  0.59375 0.046875 0  0.609375 0.046875 0  0.625 0.046875 0  0.640625 0.046875 0  0.65625 0.046875 0  0.671875 0.046875 0  0.6875 0.046875 0  0.703125 0.046875 0  0.71875 0.046875 0  0.734375 0.046875 0  0.75 0.046875 0  0.765625 0.046875 0  0.78125 0.046875 0  0.796875 0.046875 0  0.8125 0.046875 0  0.828125 0.046875 0  0.84375 0.046875 0  0.859375 0.046875 0  0.875 0.046875 0  0.890625 0.046875 0  0.90625 0.046875 0  0.921875 0.046875 0  0.9375 0.046875 0  0.953125 0.046875 0  0.96875 0.046875 0  0.984375 0.046875 0  1 0.046875 0  0 0.0625 0  0.015625 0.0625 0  0.03125 0.0625 0  0.046875 0.0625 0  0.0625 0.0625 0  0.078125 0.0625 0  0.09375 0.0625 0  0.109375 0.0625 0  0.125 0.0625 0  0.140625 0.0625 0  0.15625 0.0625 0  0.171875 0.0625 0  0.1875 0.0625 0  0.203125 0.0625 0  0.21875 0.0625 0  0.234375 0.0625 0  0.25 0.0625 0  0.265625 0.0625 0  0.28125 0.0625 0  0.296875 0.0625 0  0.3125 0.0625 0  0.328125 0.0625 0  0.34375 0.0625 0  0.359375 0.0625 0  0.375 0.0625 0  0.390625 0.0625 0  0.40625 0.0625 0  0.421875 0.0625 0  0.4375 0.0625 0  0.453125 0.0625 0  0.46875 0.0625 0  0.484375 0.0625 0  0.5 0.0625 0  0.515625 0.0625 0  0.53125 0.0625 0  0.546875 0.0625 0  0.5625 0.0625 0  0.578125 0.0625 0  0.59375 0.0625 0  0.609375 0.0625 0  0.625 0.0625 0  0.640625 0.0625 0  0.65625 0.0625 0  0.671875 0.0625 0  0.6875 0.0625 0  0.703125 0.0625 0  0.71875 0.0625 0  0.734375 0.0625 0  0.75 0.0625 0  0.765625 0.0625 0  0.78125 0.0625 0  0.796875 0.0625 0  0.8125 0.0625 0  0.828125 0.0625 0  0.84375 0.0625 0  0.859375 0.0625 0  0.875 0.0625 0  0.890625 0.0625 0  0.90625 0.0625 0  0.921875 0.0625 0  0.9375 0.0625 0  0.953125 0.0625 0  0.96875 0.0625 0  0.984375 0.0625 0  1 0.0625 0  0 0.078125 0  0.015625 0.078125 0  0.03125 0.078125 0  0.046875 0.078125 0  0.0625 0.078125 0  0.078125 0.078125 0  0.09375 0.078125 0  0.109375 0.078125 0  0.125 0.078125 0  0.140625 0.078125 0  0.15625 0.078125 0  0.171875 0.078125 0  0.1875 0.078125 0  0.203125 0.078125 0  0.21875 0.078125 0  0.234375 0.078125 0  0.25 0.078125 0  0.265625 0.078125 0  0.28125 0.078125 0  0.296875 0.078125 0  0.3125 0.078125 0  0.328125 0.078125 0  0.34375 0.078125 0  0.359375 0.078125 0  0.375 0.078125 0  0.390625 0.078125 0  0.40625 0.078125 0  0.421875 0.078125 0  0.4375 0.078125 0  0.453125 0.078125 0  0.46875 0.078125 0  0.484375 0.078125 0  0.5 0.078125 0  0.515625 0.078125 0  0.53125 0.078125 0  0.546875 0.078125 0  0.5625 0.078125 0  0.578125 0.078125 0  0.59375 0.078125 0  0.609375 0.078125 0  0.625 0.078125 0  0.640625 0.078125 0  0.65625 0.078125 0  0.671875 0.078125 0  0.6875 0.078125 0  0.703125 0.078125 0  0.71875 0.078125 0  0.734375 0.078125 0  0.75 0.078125 0  0.765625 0.078125 0  0.78125 0.078125 0  0.796875 0.078125 0  0.8125 0.078125 0  0.828125 0.078125 0  0.84375 0.078125 0  0.859375 0.078125 0  0.875 0.078125 0  0.890625 0.078125 0  0.90625 0.078125 0  0.921875 0.078125 0  0.9375 0.078125 0  0.953125 0.078125 0  0.96875 0.078125 0  0.984375 0.078125 0  1 0.078125 0  0 0.09375 0  0.015625 0.09375 0  0.03125 0.09375 0  0.046875 0.09375 0  0.0625 0.09375 0  0.078125 0.09375 0  0.09375 0.09375 0  0.109375 0.09375 0  0.125 0.09375 0  0.140625 0.09375 0  0.15625 0.09375 0  0.171875 0.09375 0  0.1875 0.09375 0  0.203125 0.09375 0  0.21875 0.09375 0  0.234375 0.09375 0  0.25 0.09375 0  0.265625 0.09375 0  0.28125 0.09375 0  0.296875 0.09375 0  0.3125 0.09375 0  0.328125 0.09375 0  0.34375 0.09375 0  0.359375 0.09375 0  0.375 0.09375 0  0.390625 0.09375 0  0.40625 0.09375 0  0.421875 0.09375 0  0.4375 0.09375 0  0.453125 0.09375 0  0.46875 0.09375 0  0.484375 0.09375 0  0.5 0.09375 0  0.515625 0.09375 0  0.53125 0.09375 0  0.546875 0.09375 0  0.5625 0.09375 0  0.578125 0.09375 0  0.59375 0.09375 0  0.609375 0.09375 0  0.625 0.09375 0  0.640625 0.09375 0  0.65625 0.09375 0  0.671875 0.09375 0  0.6875 0.09375 0  0.703125 0.09375 0  0.71875 0.09375 0  0.734375 0.09375 0  0.75 0.09375 0  0.765625 0.09375 0  0.78125 0.09375 0  0.796875 0.09375 0  0.8125 0.09375 0  0.828125 0.09375 0  0.84375 0.09375 0  0.859375 0.09375 0  0.875 0.09375 0  0.890625 0.09375 0  0.90625 0.09375 0  0.921875 0.09375 0  0.9375 0.09375 0  0.953125 0.09375 0  0.96875 0.09375 0  0.984375 0.09375 0  1 0.09375 0  0 0.109375 0  0.015625 0.109375 0  0.03125 0.109375 0  0.046875 0.109375 0  0.0625 0.109375 0  0.078125 0.109375 0  0.09375 0.109375 0  0.109375 0.109375 0  0.125 0.109375 0  0.140625 0.109375 0  0.15625 0.109375 0  0.171875 0.109375 0  0.1875 0.109375 0  0.203125 0.109375 0  0.21875 0.109375 0  0.234375 0.109375 0  0.25 0.109375 0  0.265625 0.109375 0  0.28125 0.109375 0  0.296875 0.109375 0  0.3125 0.109375 0  0.328125 0.109375 0  0.34375 0.109375 0  0.359375 0.109375 0  0.375 0.109375 0  0.390625 0.109375 0  0.40625 0.109375 0  0.421875 0.109375 0  0.4375 0.109375 0  0.453125 0.109375 0  0.46875 0.109375 0  0.484375 0.109375 0  0.5 0.109375 0  0.515625 0.109375 0  0.53125 0.109375 0  0.546875 0.109375 0  0.5625 0.109375 0  0.578125 0.109375 0  0.59375 0.109375 0  0.609375 0.109375 0  0.625 0.109375 0  0.640625 0.109375 0  0.65625 0.109375 0  0.671875 0.109375 0  0.6875 0.109375 0  0.703125 0.109375 0  0.71875 0.109375 0  0.734375 0.109375 0  0.75 0.109375 0  0.765625 0.109375 0  0.78125 0.109375 0  0.796875 0.109375 0  0.8125 0.109375 0  0.828125 0.109375 0  0.84375 0.109375 0  0.859375 0.109375 0  0.875 0.109375 0  0.890625 0.109375 0  0.90625 0.109375 0  0.921875 0.109375 0  0.9375 0.109375 0  0.953125 0.109375 0  0.96875 0.109375 0  0.984375 0.109375 0  1 0.109375 0  0 0.125 0  0.015625 0.125 0  0.03125 0.125 0  0.046875 0.125 0  0.0625 0.125 0  0.078125 0.125 0  0.09375 0.125 0  0.109375 0.125 0  0.125 0.12
[...]
<PointData  Scalars="f_14444"> 
<DataArray  type="Float64"  Name="f_14444"  format="ascii">1.0752643463759506e-16  1.1771146104435291e-16  1.4199077741537532e-16  1.8039364619407382e-16  2.3461292994632324e-16  3.0771254368432285e-16  4.0404649380750127e-16  5.2929155747829901e-16  6.9054655335786245e-16  8.9646735691882944e-16  1.1574146192128132e-15  1.4855966440364604e-15  1.8951970729870923e-15  2.4024878958876343e-15  3.0259356635637367e-15  3.7862782911685033e-15  4.7063946027589348e-15  5.8103720447135388e-15  7.1204274857835504e-15  8.6495371727860810e-15  1.0387750392319242e-14  1.2282650224106939e-14  1.4219909802809704e-14  1.6016158765860266e-14  1.7437886787717800e-14  1.8251518661828500e-14  1.8292226571494477e-14  1.7522932930743537e-14  1.6053736925118525e-14  1.4110031251404554e-14  1.1964127544305474e-14  9.8622449004062348e-15  7.9759065223782528e-15  6.3890813744440091e-15  5.1137555335348286e-15  4.1177591065926339e-15  3.3507346323154691e-15  2.7614352285832703e-15  2.3060552717072255e-15  1.9504189244646625e-15  1.6691088100640364e-15  1.4436149438214433e-15  1.2605190474508279e-15  1.1100487874846704e-15  9.8502261772822150e-16  8.8010656386654872e-16  7.9129593440631581e-16  7.1555306746046900e-16  6.5055218446522369e-16  5.9449786068921080e-16  5.4599436393524094e-16  5.0395034180839566e-16  4.6750817619485321e-16  4.3599058120628927e-16  4.0885924214516513e-16  3.8568183806008765e-16  3.6610489690348446e-16  3.4983075495334072e-16  3.3659752390365678e-16  3.2616144737753077e-16  3.1828133535695579e-16  3.1270484581304822e-16  3.0915625698184723e-16  3.0732545049766078e-16  3.0685946726341314e-16  1.0875287010377731e-16  1.1780804833705315e-16  1.4211460890594482e-16  1.8062627039551994e-16  2.3495368315934910e-16  3.0816287159757225e-16  4.0461357579656293e-16  5.2998632929571902e-16  6.9138249099550297e-16  8.9746187811379122e-16  1.1585990632387490e-15  1.4870558176078711e-15  1.8972053215068020e-15  2.4059327365373415e-15  3.0335048755873042e-15  3.8054117818732963e-15  4.7556827535979531e-15  5.9313503410347090e-15  7.3952883938032655e-15  9.2206579839432528e-15  1.1467295958103722e-14  1.4134192711939878e-14  1.7097425883023266e-14  2.0065324709165184e-14  2.2594816840775825e-14  2.4194338355227865e-14  2.4488338988380613e-14  2.3367511059588012e-14  2.1041343888950308e-14  1.7960685001709240e-14  1.4653525731207425e-14  1.1561141787192687e-14  8.9460644143244054e-15  6.8892795279703428e-15  5.3459278774016926e-15  4.2141022225173119e-15  3.3858294838263554e-15  2.7720443682634817e-15  2.3081150621766840e-15  1.9500029439276635e-15  1.6682256937640317e-15  1.4428116089589905e-15  1.2598895673413632e-15  1.1095733308961170e-15  9.8466477310751247e-16  8.7983551803490314e-16  7.9108886524219648e-16  7.1539355426190833e-16  6.5042840499337494e-16  5.9440121600701372e-16  5.4591850734867397e-16  5.0389050140597772e-16  4.6746068057153572e-16  4.3595252620403160e-16  4.0882825764695660e-16  3.8565592805268372e-16  3.6608233427425733e-16  3.4981001324682996e-16  3.3657721307584622e-16  3.2614016687323426e-16  3.1825722416681184e-16  3.1267435924049869e-16  3.0911142004986888e-16  3.0724903754002793e-16  3.0671961419769390e-16  1.0946354662941467e-16  1.1809469245132487e-16  1.4227671323373032e-16  1.8086462482786279e-16  2.3529554717819924e-16  3.0861366916504184e-16  4.0518116167586680e-16  5.3068268416989477e-16  6.9222641815689450e-16  8.9849802311852243e-16  1.1599893603006992e-15  1.4894617791922386e-15  1.9032130585402080e-15  2.4247765875113298e-15  3.0948922511790588e-15  3.9949128865495077e-15  5.2929329174566234e-15  7.3161188388489562e-15  1.0629027582055287e-14  1.6053372426450671e-14  2.4523394343550695e-14  3.6690859172242316e-14  5.2330706182486595e-14  6.9823020995050123e-14  8.6132788766837232e-14  9.7565877592739001e-14  1.0112093256164831e-13  9.5773491079888311e-14  8.2943402998110190e-14  6.5857861877270626e-14  4.8204177906278261e-14  3.2842279845751662e-14  2.1172699134709173e-14  1.3253412620657133e-14  8.3475261837657199e-15  5.4967209978076385e-15  3.8820028218915787e-15  2.9453496899842994e-15  2.3623236166643338e-15  1.9647811585120586e-15  1.6713705873427562e-15  1.4429814390210476e-15  1.2594751731245422e-15  1.1091418741258023e-15  9.8431561436235899e-16  8.7956637274773721e-16  7.9088240270800182e-16  7.1523434912114110e-16  6.5030482280807657e-16  5.9430470600418468e-16  5.4584274378724420e-16  5.0383072514523749e-16  4.6741322891199756e-16  4.3591450112192946e-16  4.0879729336371883e-16  3.8563003131678640e-16  3.6605977710364100e-16  3.4978925190556022e-16  3.3655677365206132e-16  3.2611835396800207e-16  3.1823138031826425e-16  3.1263939605974647e-16  3.0905807846698593e-16  3.0716520241041113e-16  3.0660466929577119e-16  1.0995918201088366e-16  1.1841466559609316e-16  1.4248491085271350e-16  1.8111462863765593e-16  2.3563987781876488e-16  3.0906537515590244e-16  4.0575057598032404e-16  5.3139028732057358e-16  6.9314059903007348e-16  8.9993401430156590e-16  1.1634565424874419e-15  1.5016748858397327e-15  1.9511809193806524e-15  2.6060398743923196e-15  3.7247067775914810e-15  5.9825552757604209e-15  1.0970938874984236e-14  2.1982830849162767e-14  4.4874534895115111e-14  8.8324844952960718e-14  1.6237885017443212e-13  2.7437431702799166e-13  4.2278282581132378e-13  5.9183079699716037e-13  7.5125224486248829e-13  8.6400556473585933e-13  9.0003710141207335e-13  8.4924958995381221e-13  7.2606542072641927e-13  5.6278587228490748e-13  3.9590041959793025e-13  2.5321233650405266e-13  1.4773378156477828e-13  7.9140560196172849e-14  3.9451777871543405e-14  1.8817391142187459e-14  9.0589919772196185e-15  4.7716662799113127e-15  2.9470249510247755e-15  2.1343801931588177e-15  1.7156372730445628e-15  1.4531014597462174e-15  1.2612570425151744e-15  1.1091536431428057e-15  9.8404870511342747e-16  8.7931154464488864e-16  7.9067846997106906e-16  7.1507572556739447e-16  6.5018147338220955e-16  5.9420833463875352e-16  5.4576707343887743e-16  5.0377101282092756e-16  4.6736582094842864e-16  4.3587650569776693e-16  4.0876634916735944e-16  3.8560414699248425e-16  3.6603721635331887e-16  3.4976842315694778e-16  3.3653603684365660e-16  3.2609558425334524e-16  3.1820311816071282e-16  3.1259975491747863e-16  3.0899876730078168e-16  3.0708003969077485e-16  3.0650175969153885e-16  1.1035261174820154e-16  1.1872810640606137e-16  1.4272363898660006e-16  1.8137956209152364e-16  2.3598840008822069e-16  3.0951930361977620e-16  4.0633443306598347e-16  5.3220249474154845e-16  6.9471739298038114e-16  9.0518599698378949e-16  1.1868728533647304e-15  1.6082408742502868e-15  2.4025154916731529e-15  4.3457216611436539e-15  9.7955273851063397e-15  2.5136183837510683e-14  6.5587205779778939e-14  1.6272352084689573e-13  3.7262534688872718e-13  7.7810874237092138e-13  1.4744561713391133e-12  2.5303093007158743e-12  3.9292491075732779e-12  5.5196563976905257e-12  7.0139517639044612e-12  8.0630941399327290e-12  8.3869528579491071e-12  7.8953335734867216e-12  6.7285594022425507e-12  5.1928135915868058e-12  3.6306556325268707e-12  2.3008475751841116e-12  1.3225621694770152e-12  6.9032921923610897e-13  3.2787890807350304e-13  1.4234167441993324e-13  5.7091538460910362e-14  2.1738986659515034e-14  8.3948019026009086e-15  3.7249562926805963e-15  2.1379479261557573e-15  1.5548855818704085e-15  1.2833188268132160e-15  1.1132654050254781e-15  9.8454082863336383e-16  8.7918590601943020e-16  7.9049499148299425e-16  7.1492026206556921e-16  6.5005869956136523e-16  5.9411214397951850e-16  5.4569150089515954e-16  5.0371136470988576e-16  4.6731845655255414e-16  4.3583853986830935e-16  4.0873542450900493e-16  3.8557826980544852e-16  3.6601462586608468e-16  3.4974743820117407e-16  3.3651478132811286e-16  3.2607147032254020e-16  3.1817209813146631e-16  3.1255587321711509e-16  3.0893550492078660e-16  3.0699535201689700e-16  3.0640550219597198e-16  1.1069131009479997e-16  1.1902829078381988e-16  1.4298030665851993e-16  1.8165756734598893e-16  2.3634151684666242e-16  3.0999000245056764e-16  4.0705143238135228e-16  5.3392867869703127e-16  7.0208610339356666e-16  9.4388833775493612e-16  1.3849920593611089e-15  2.5391283581770196e-15  6.3682436552625365e-15  1.9624114771761093e-14  6.2993139501738509e-14  1.9251385723364829e-13  5.4145025386246860e-13  1.3852404324248589e-12  3.2107927912676602e-12  6.7328662285258453e-12  1.2766609606571154e-11  2.1887001761268266e-11  3.3927354024132035e-11  4.7557734403650031e-11  6.0294348731352949e-11  6.9152710878605193e-11  7.1766971306940802e-11  6.7412354014945892e-11  5.7329817066746569e-11  4.4155461681649302e-11  3.0810479139483299e-11  1.9484224159376248e-11  1.1171660120534415e-11  5.8104953654333764e-12  2.7431078929592915e-12  1.1765848722235840e-12  4.5934597823069338e-13  1.6391994877289770e-13  5.4095511931298115e-14  1.7092653152613020e-14  5.6989978482371934e-15  2.4194362199199795e-15  1.4746114564267467e-15  1.1517061795164017e-15  9.9141164872500057e-16  8.8014853248927088e-16  7.9048263345281095e-16  7.1478981712635007e-16  6.4993944146348920e-16  5.9401650221284307e-16  5.4561606914471079e-16  5.0365178540242889e-16  4.6727113612886971e-16  4.3580060335055416e-16  4.0870451657487475e-16  3.8555238600984499e-16  3.6599195886342957e-16  3.4972617721804338e-16  3.3649277811829780e-16  3.2604572573258754e-16  3.1813825104898167e-16  3.1250837372040161e-16  3.0886963493301407e-16  3.0691158968193069e-16  3.0631339111729237e-16  1.1100016964333298e-16  1.1931632375497937e-16  1.4324307646908504e-16  1.8194201291538071e-16  2.3671618132148300e-16  3.1061081075456043e-16  4.0881399640450857e-16  5.4288959030333142e-16  7.5564648184486246e-16  1.2490024647851714e-15  2.9701088182090261e-15  9.9936246572618189e-15  3.8058000105303311e-14  1.4135668591088252e-13  4.8550646040273677e-13  1.5175140316483272e-12  4.2958886328773676e-12  1.0998031676771654e-11  2.5452182465384032e-11  5.3240667739541078e-11  1.0066815756450277e-10  1.7207710043380386e-10  2.6595468620815015e-10  3.7173334126580627e-10  4.6999407321827085e-10  5.3764839931972181e-10  5.5663018128272443e-10  5.2170276327470698e-10  4.4279301194637412e-10  3.4043980467972060e-10  2.3718672089257457e-10  1.4979873436264844e-10  8.5794917288063706e-11  4.4579227526070878e-11  2.1024389257548338e-11  9.0047243470920043e-12  3.5049172609117215e-12  1.2411206329622675e-12  4.0070194685474646e-13  1.1863031691437639e-13  3.2804660268007897e-14  9.0200808379593118e-15  2.9425214039110356e-15  1.4501082232580834e-15  1.0468106510538823e-15  8.8943544696440697e-16  7.9178634350627034e-16  7.1485196096690219e-16  6.4984648249352389e-16  5.9392430201175112e-16  5.4554112312748016e-16  5.0359231372175714e-16  4.6722386364228294e-16  4.3576269511697655e-16  4.0867361833552669e-16  3.8552647105269767e-16  3.6596914993306226e-16  3.4970450504784473e-16  3.3646982215919336e-16  3.2601817434607223e-16  3.1810167415064798e-16  3.1245786362851753e-16  3.0880201440945862e-16  3.0682878914939679e-16  3.0622412378189130e-16  1.1128607236939010e-16  1.1958468876207370e-16  1.4350100508256465e-16  1.8225941604400094e-16  2.3725492254514198e-16  3.1222022876158598e-16  4.1797567773081590e-16  6.0438024874517013e-16  1.1441134354275314e-15  3.4773625496868381e-15  1.4531695172604823e-14  6.4209892202326596e-14  2.6777249355648967e-13  1.0206874861320797e-12  3.5265279419041248e-12  1.1019240250478494e-11  3.1119864613950651e-11  7.9422851923834748e-11  1.8318356809237844e-10  3.8185988749978708e-10  7.1954908534277167e-10  1.2258368718511009e-09  1.8884711247940247e-09  2.6314433638614870e-09  3.3173708317709956e-09  3.7846793490217489e-09  3.9086371740292748e-09  3.6552367782112013e-09  3.0962669145883744e-09  2.3765064050342983e-09  1.6533660092715803e-09  1.0430087084692362e-09  5.9684946509847105e-10  3.0994220850261748e-10  1.4612766750598012e-10  6.2580334748547923e-11  2.4358205186545515e-11  8.6228888095426225e-12  2.7788176089947223e-12  8.1646023075993524e-13  2.1949825699803545e-13  5.4610006260679792e-14  1.3118059373093661e-14  3.5292377974572664e-15  1.4363534858177677e-15  9.5639994373942466e-16  8.0227708253273509e-16  7.1626971294719761e-16  6.4993978780666682e-16  5.9385613916702832e-16  5.4546916139236969e-16  5.0353323726325557e-16  4.6717667004112967e-16  4.3572481493956717e-16  4.0864271732827373e-16  3.8550048936853692e-16  3.6594612032659110e-16  3.4968228587880261e-16  3.3644574821839837e-16  3.2598873416971619e-16  3.1806255068978285e-16  3.1240486765348223e-16  3.0873319254955304e-16  3.0674687377947907e-16  3.0613695157867001e-16  1.1152004811913196e-16  1.1983406291000797e-16  1.4381753725409318e-16  1.8276379073110161e-16  2.3853574786391155e-16  3.1991434396050710e-16  4.7633281471561286e-16  1.0135482165180348e-15  3.7331420042263832e-15  1.8289080152072732e-14  9.1128400553166871e-14  4.2209114197479889e-13  1.7782905081437846e-12  6.7800039128259068e-12  2.3364115058008029e-11  7.2750005467146222e-11  2.0467677763925806e-10  5.2033790125246863e-10  1.1954604613031793e-09  2.4824773938827825e-09  4.6603317779290518e-09  7.9108505268661819e-09  1.2145308492827038e-08  1.6868890906822692e-08  2.1202083676895011e-08  2.4121956239379463e-08  2.4849741373612265e-08  2.3187014813774141e-08  1.9603083391180141e-08  1.5021336108225519e-08  1.0436416637532558e-08  6.5767969080230553e-09  3.7607001088589903e-09  1.9520801626108844e-09  9.2023908707139423e-10  3.9418300525182937e-10  1.5350991398763405e-10  5.4387556683859180e-11  1.7543751884088004e-11  5.1573701273928319e-12  1.3836870101780188e-12  3.3977159346059577e-13  7.7006703038347714e-14  1.6645044244767036e-14  3.9088280003392351e-15  1.3854201378086765e-15  8.7092391483993810e-16  7.2635548839325546e-16  6.5123796538577919e-16  5.9394516653306025e-16  5.4541663116921346e-16  5.0347649025735442e-16  4.6712977198893420e-16  4.3568698006575164e-16  4.0861179687216209e-16  3.8547439605035314e-16  3.6592278435469677e-16  3.4965939405772903e-16  3.3642043511669306e-16  3.2595739411367380e-16  3.1802109882865519e-16  3.1234981839661356e-16  3.0866353037477764e-16  3.0666574869303393e-16  3.0605140791000509e-16  1.1175827827804087e-16  1.2020027974600489e-16  1.4434563258130788e-16  1.8358883070030033e-16  2.4355978800517799e-16  3.6559059445666301e-16  8.3391476080741946e-16  3.5042661408574160e-15  1.9430381156627705e-14  1.0778328119486443e-13  5.5211824447224719e-13  2.5668523274820676e-12  1.0791244793938322e-11  4.0991981103260405e-11  1.4067409452612150e-10  4.3613803350222897e-10  1.2217040545574135e-09  3.0924099872475572e-09  7.0743954494663334e-09  1.4629478451851868e-08  2.7353577124955470e-08  4.6254568774284134e-08  7.0756916212387651e-08  9.7945082404156875e-08  1.2272331835654536e-07  1.3923156424956126e-07  1.4307156104770386e-07  1.3320358004742325e-07  1.1240116547500098e-07  8.5993901017224766e-08  5.9670759500357918e-08  3.7567752670491101e-08  2.1468479422494497e-08  1.1140526178947216e-08  5.2520843203875553e-09  2.2506336411038347e-09  8.7716100686048784e-10  3.1113319434491758e-10  1.0051823306216130e-10  2.9605892209421305e-11  7.9587717740105258e-12  1.9558401459721316e-12  4.4060058371945805e-13  9.1670823414046166e-14  1.8140824576542642e-14  3.8744148479015816e-15  1.2735706710240059e-15  7.8678617480717992e-16  6.5962858563641915e-16  5.9497395002149800e-16  5.4548210938835212e-16  5.0343393310397001e-16  4.6708454062442212e-16  4.3564933485353240e-16  4.0858084847264353e-16  3.8544814068098119e-16  3.6589905547206542e-16  3.4963572063641090e-16  3.3639380314110902e-16  3.2592419228449638e-16  3.1797754269029908e-16  3.1229306689774437e-16  3.0859327376939405e-16  3.0658532867079498e-16  3.0596718372516122e-16  1.1242508573645178e-16  1.2077855120727049e-16  1.4457212739974306e-16  1.8553584218523719e-16  2.7305787548880827e-16  6.2705819851105276e-16  2.8240369114280700e-15  1.7290529290912149e-14  1.0606065040217334e-13  5.9965197232291023e-13  3.0738382271055745e-12  1.4242079902881633e-11  5.9611266791666565e-11  2.2537431788523039e-10  7.6969134668119326e-10  2.3746936195622087e-09  6.6197179471614778e-09  1.6675947634373460e-08  3.7971120585482324e-08  7.8168885859234850e-08  1.4552879631145280e-07  2.4508918697124333e-07  3.7350090558648281e-07  5.1521421759745264e-07  6.4350471885881573e-07  7.2798773187621199e-07  7.4618552754501548e-07  6.9320799228443660e-07  5.8387536925087278e-07  4.4603212473587380e-07  3.0914096576869048e-07  1.9447078031740653e-07  1.1107935574724283e-07  5.7634419452912378e-08  2.7177375966036808e-08  1.1653120781727950e-08  4.5462125871666458e-09  1.6148560204514127e-09  5.2269620926444922e-10  1.5431801149120020e-10  4.1604591345471296e-11  1.0257668916113881e-11  2.3172308576524654e-12  4.8112156293824423e-13  9.2529392009970754e-14  1.6993387102432337e-14  3.4178510625539363e-15  1.1130481674170061e-15  7.0603174612837780e-16  6.0112870446286619e-16  5.4620434130870712e-16  5.0347199746404353e-16  4.6704888340886802e-16  4.3561278250256472e-16  4.0854994534160577e-16  3.8542167844199261e-16  3.6587485195590916e-16  3.4961117647202851e-16  3.3636580831657398e-16  3.2588919868740138e-16  3.1793209754494973e-16  3.1223489782678618e-16  3.0852259698302322e-16  3.0650554441077532e-16  3.0588406526492775e-16  1.1320748204997248e-16  1.2024003675226330e-16  1.4370467234415764e-16  2.0173785414965167e-16  4.3733418487608966e-16  1.9551114909613841e-15  1.2876100412448726e-14  8.6915958330517250e-14  5.4181727671753881e-13  3.0605502776609484e-12  1.5620814255998300e-11  7.2009448119672067e-11  2.9979813257071173e-10  1.1272970017331881e-09  3.8288159685345962e-09  1.1748332424397858e-08  3.2573165170668238e-08  8.1623949334006985e-08  1.8491192388820205e-07  3.7881673843109993e-07  7.0201451022122926e-07  1.1772178738757540e-06  1.7869206736856924e-06  2.4560426315062009e-06  3.0576852015936362e-06  3.4492051075693513e-06  3.5266077484893119e-06  3.2692636057681083e-06  2.7487913215544682e-06  2.0969137762013382e-06  1.4518445923547181e-06  9.1268927363599301e-07  5.2115110924088683e-07  2.7041652283660623e-07  1.2756861860576539e-07  5.4743834623407081e-08  2.1383655851983568e-08  7.6085708645913024e-09  2.4681625036644244e-09  7.3070157759714731e-10  1.9766881310655933e-10  4.8935065031503008e-11  1.1106954750897266e-11  2.3169785035770453e-12  4.4591706799197203e-13  7.9898530517651919e-14  1.3815490937892201e-14  2.7168091653944311e-15  9.3816622461563611e-16  6.3282086448396401e-16  5.5027259405669501e-16  5.0393120881693738e-16  4.6706455772147527e-16  4.3558230215064703e-16  4.0851963899386920e-16  3.8539501935196237e-16  3.6585010567378124e-16  3.4958569335858069e-16  3.3633643585134560e-16  3.2585250255269419e-16  3.1788496322244384e-16  3.1217554369200165e-16  3.0845162863564132e-16  3.0642634209536765e-16  3.0580190021438075e-16  1.0982723433481369e-16  1.1717207821919698e-16  1.5297314212992168e-16  2.9808475585864589e-16  1.1856228533378188e-15  8.0411495756143793e-15  5.9440244940672659e-14  4.0844492361998798e-13  2.5412281930223198e-12  1.4279570275534657e-11  7.2459665727906203e-11  3.3201834164046211e-10  1.3737872376822775e-09  5.1335514272201267e-09  1.7327486757760469e-08  5.2840906372806834e-08  1.4562515953909643e-07  3.6279680776131242e-07  8.1732150871636920e-07  1.6656147206275608e-06  3.0715819390985885e-06  5.1275502673348202e-06  7.7512264575123636e-06  1.0614333175614097e-05  1.3171105748362666e-05  1.4814984100585392e-05  1.5110179450542063e-05  1.3978707595397293e-05  1.1733682498330001e-05  8.9395649247410913e-06  6.1839319144003609e-06  3.8854453779063742e-06  2.2182990971507871e-06  1.1513210315222729e-06  5.4348511756937181e-07  2.3347603341840292e-07  9.1337246795467141e-08  3.2564262875749525e-08  1.0590613797015241e-08  3.1453175821524158e-09  8.5417467617605851e-10  2.1245506790847071e-10  4.8493430692306909e-11  1.0182626664757663e-11  1.9732557695269813e-12  3.5463082282630667e-13  5.9797327620009990e-14  9.9157068317639531e-15  1.9989302392740838e-15  7.80918541809