<?xml version="1.0"?>
<VTKFile type="UnstructuredGrid"  version="0.1"  >
<UnstructuredGrid>
<Piece  NumberOfPoints="4225" NumberOfCells="8192">
<Points>
<DataArray  type="Float64"  NumberOfComponents="3"  format="ascii">0 0 0  0.015625 0 0  0.03125 0 0  0.046875 0 0  0.0625 0 0  0.078125 0 0  0.09375 0 0  0.109375 0 0  0.125 0 0  0.140625 0 0  0.15625 0 0  0.171875 0 0  0.1875 0 0  0.203125 0 0  0.21875 0 0  0.234375 0 0  0.25 0 0  0.265625 0 0  0.28125 0 0  0.296875 0 0  0.3125 0 0  0.328125 0 0  0.34375 0 0  0.359375 0 0  0.375 0 0  0.390625 0 0  0.40625 0 0  0.421875 0 0  0.4375 0 0  0.453125 0 0  0.46875 0 0  0.484375 0 0  0.5 0 0  0.515625 0 0  0.53125 0 0  0.546875 0 0  0.5625 0 0  0.578125 0 0  0.59375 0 0  0.609375 0 0  0.625 0 0  0.640625 0 0  0.65625 0 0  0.671875 0 0  0.6875 0 0  0.703125 0 0  0.71875 0 0  0.734375 0 0  0.75 0 0  0.765625 0 0  0.78125 0 0  0.796875 0 0  0.8125 0 0  0.828125 0 0  0.84375 0 0  0.859375 0 0  0.875 0 0  0.890625 0 0  0.90625 0 0  0.921875 0 0  0.9375 0 0  0.953125 0 0  0.96875 0 0  0.984375 0 0  1 0 0  0 0.015625 0  0.015625 0.015625 0  0.03125 0.015625 0  0.046875 0.015625 0  0.0625 0.015625 0  0.078125 0.015625 0  0.09375 0.015625 0  0.109375 0.015625 0  0.125 0.015625 0  0.140625 0.015625 0  0.15625 0.015625 0  0.171875 0.015625 0  0.1875 0.015625 0  0.203125 0.015625 0  0.21875 0.015625 0  0.234375 0.015625 0  0.25 0.015625 0  0.265625 0.015625 0  0.28125 0.015625 0  0.296875 0.015625 0  0.3125 0.015625 0  0.328125 0.015625 0  0.34375 0.015625 0  0.359375 0.015625 0  0.375 0.015625 0  0.390625 0.015625 0  0.40625 0.015625 0  0.421875 0.015625 0  0.4375 0.015625 0  0.453125 0.015625 0  0.46875 0.015625 0  0.484375 0.015625 0  0.5 0.015625 0  0.515625 0.015625 0  0.53125 0.015625 0  0.546875 0.015625 0  0.5625 0.015625 0  0.578125 0.015625 0  0.59375 0.015625 0  0.609375 0.015625 0  0.625 0.015625 0  0.640625 0.015625 0  0.65625 0.015625 0  0.671875 0.015625 0  0.6875 0.015625 0  0.703125 0.015625 0  0.71875 0.015625 0  0.734375 0.015625 0  0.75 0.015625 0  0.765625 0.015625 0  0.78125 0.015625 0  0.796875 0.015625 0  0.8125 0.015625 0  0.828125 0.015625 0  0.84375 0.015625 0  0.859375 0.015625 0  0.875 0.015625 0  0.890625 0.015625 0  0.90625 0.015625 0  0.921875 0.015625 0  0.9375 0.015625 0  0.953125 0.015625 0  0.96875 0.015625 0  0.984375 0.015625 0  1 0.015625 0  0 0.03125 0  0.015625 0.03125 0  0.03125 0.03125 0  0.046875 0.03125 0  0.0625 0.03125 0  0.078125 0.03125 0  0.09375 0.03125 0  0.109375 0.03125 0  0.125 0.03125 0  0.140625 0.03125 0  0.15625 0.03125 0  0.171875 0.03125 0  0.1875 0.03125 0  0.203125 0.03125 0  0.21875 0.03125 0  0.234375 0.03125 0  0.25 0.03125 0  0.265625 0.03125 0  0.28125 0.03125 0  0.296875 0.03125 0  0.3125 0.03125 0  0.328125 0.03125 0  0.34375 0.03125 0  0.359375 0.03125 0  0.375 0.03125 0  0.390625 0.03125 0  0.40625 0.03125 0  0.421875 0.03125 0  0.4375 0.03125 0  0.453125 0.03125 0  0.46875 0.03125 0  0.484375 0.03125 0  0.5 0.03125 0  0.515625 0.03125 0  0.53125 0.03125 0  0.546875 0.03125 0  0.5625 0.03125 0  0.578125 0.03125 0  0.59375 0.03125 0  0.609375 0.03125 0  0.625 0.03125 0  0.640625 0.03125 0  0.65625 0.03125 0  0.671875 0.03125 0  0.6875 0.03125 0  0.703125 0.03125 0  0.71875 0.03125 0  0.734375 0.03125 0  0.75 0.03125 0  0.765625 0.03125 0  0.78125 0.03125 0  0.796875 0.03125 0  0.8125 0.03125 0  0.828125 0.03125 0  0.84375 0.03125 0  0.859375 0.03125 0  0.875 0.03125 0  0.890625 0.03125 0  0.90625 0.03125 0  0.921875 0.03125 0  0.9375 0.03125 0  0.953125 0.03125 0  0.96875 0.03125 0  0.984375 0.03125 0  1 0.03125 0  0 0.046875 0  0.015625 0.046875 0  0.03125 0.046875 0  0.046875 0.046875 0  0.0625 0.046875 0  0.078125 0.046875 0  0.09375 0.046875 0  0.109375 0.046875 0  0.125 0.046875 0  0.140625 0.046875 0  0.15625 0.046875 0  0.171875 0.046875 0  0.1875 0.046875 0  0.203125 0.046875 0  0.21875 0.046875 0  0.234375 0.046875 0  0.25 0.046875 0  0.265625 0.046875 0  0.28125 0.046875 0  0.296875 0.046875 0  0.3125 0.046875 0  0.328125 0.046875 0  0.34375 0.046875 0  0.359375 0.046875 0  0.375 0.046875 0  0.390625 0.046875 0  0.40625 0.046875 0  0.421875 0.046875 0  0.4375 0.046875 0  0.453125 0.046875 0  0.46875 0.046875 0  0.484375 0.046875 0  0.5 0.046875 0  0.515625 0.046875 0  0.53125 0.046875 0  0.546875 0.046875 0  0.5625 0.046875 0  0.578125 0.046875 0  0.59375 0.046875 0  0.609375 0.046875 0  0.625 0.046875 0  0.640625 0.046875 0  0.65625 0.046875 0  0.671875 0.046875 0  0.6875 0.046875 0  0.703125 0.046875 0  0.71875 0.046875 0  0.734375 0.046875 0  0.75 0.046875 0  0.765625 0.046875 0  0.78125 0.046875 0  0.796875 0.046875 0  0.8125 0.046875 0  0.828125 0.046875 0  0.84375 0.046875 0  0.859375 0.046875 0  0.875 0.046875 0  0.890625 0.046875 0  0.90625 0.046875 0  0.921875 0.046875 0  0.9375 0.046875 0  0.953125 0.046875 0  0.96875 0.046875 0  0.984375 0.046875 0  1 0.046875 0  0 0.0625 0  0.015625 0.0625 0  0.03125 0.0625 0  0.046875 0.0625 0  0.0625 0.0625 0  0.078125 0.0625 0  0.09375 0.0625 0  0.109375 0.0625 0  0.125 0.0625 0  0.140625 0.0625 0  0.15625 0.0625 0  0.171875 0.0625 0  0.1875 0.0625 0  0.203125 0.0625 0  0.21875 0.0625 0  0.234375 0.0625 0  0.25 0.0625 0  0.265625 0.0625 0  0.28125 0.0625 0  0.296875 0.0625 0  0.3125 0.0625 0  0.328125 0.0625 0  0.34375 0.0625 0  0.359375 0.0625 0  0.375 0.0625 0  0.390625 0.0625 0  0.40625 0.0625 0  0.421875 0.0625 0  0.4375 0.0625 0  0.453125 0.0625 0  0.46875 0.0625 0  0.484375 0.0625 0  0.5 0.0625 0  0.515625 0.0625 0  0.53125 0.0625 0  0.546875 0.0625 0  0.5625 0.0625 0  0.578125 0.0625 0  0.59375 0.0625 0  0.609375 0.0625 0  0.625 0.0625 0  0.640625 0.0625 0  0.65625 0.0625 0  0.671875 0.0625 0  0.6875 0.0625 0  0.703125 0.0625 0  0.71875 0.0625 0  0.734375 0.0625 0  0.75 0.0625 0  0.765625 0.0625 0  0.78125 0.0625 0  0.796875 0.0625 0  0.8125 0.0625 0  0.828125 0.0625 0  0.84375 0.0625 0  0.859375 0.0625 0  0.875 0.0625 0  0.890625 0.0625 0  0.90625 0.0625 0  0.921875 0.0625 0  0.9375 0.0625 0  0.953125 0.0625 0  0.96875 0.0625 0  0.984375 0.0625 0  1 0.0625 0  0 0.078125 0  0.015625 0.078125 0  0.03125 0.078125 0  0.046875 0.078125 0  0.0625 0.078125 0  0.078125 0.078125 0  0.09375 0.078125 0  0.109375 0.078125 0  0.125 0.078125 0  0.140625 0.078125 0  0.15625 0.078125 0  0.171875 0.078125 0  0.1875 0.078125 0  0.203125 0.078125 0  0.21875 0.078125 0  0.234375 0.078125 0  0.25 0.078125 0  0.265625 0.078125 0  0.28125 0.078125 0  0.296875 0.078125 0  0.3125 0.078125 0  0.328125 0.078125 0  0.34375 0.078125 0  0.359375 0.078125 0  0.375 0.078125 0  0.390625 0.078125 0  0.40625 0.078125 0  0.421875 0.078125 0  0.4375 0.078125 0  0.453125 0.078125 0  0.46875 0.078125 0  0.484375 0.078125 0  0.5 0.078125 0  0.515625 0.078125 0  0.53125 0.078125 0  0.546875 0.078125 0  0.5625 0.078125 0  0.578125 0.078125 0  0.59375 0.078125 0  0.609375 0.078125 0  0.625 0.078125 0  0.640625 0.078125 0  0.65625 0.078125 0  0.671875 0.078125 0  0.6875 0.078125 0  0.703125 0.078125 0  0.71875 0.078125 0  0.734375 0.078125 0  0.75 0.078125 0  0.765625 0.078125 0  0.78125 0.078125 0  0.796875 0.078125 0  0.8125 0.078125 0  0.828125 0.078125 0  0.84375 0.078125 0  0.859375 0.078125 0  0.875 0.078125 0  0.890625 0.078125 0  0.90625 0.078125 0  0.921875 0.078125 0  0.9375 0.078125 0  0.953125 0.078125 0  0.96875 0.078125 0  0.984375 0.078125 0  1 0.078125 0  0 0.09375 0  0.015625 0.09375 0  0.03125 0.09375 0  0.046875 0.09375 0  0.0625 0.09375 0  0.078125 0.09375 0  0.09375 0.09375 0  0.109375 0.09375 0  0.125 0.09375 0  0.140625 0.09375 0  0.15625 0.09375 0  0.171875 0.09375 0  0.1875 0.09375 0  0.203125 0.09375 0  0.21875 0.09375 0  0.234375 0.09375 0  0.25 0.09375 0  0.265625 0.09375 0  0.28125 0.09375 0  0.296875 0.09375 0  0.3125 0.09375 0  0.328125 0.09375 0  0.34375 0.09375 0  0.359375 0.09375 0  0.375 0.09375 0  0.390625 0.09375 0  0.40625 0.09375 0  0.421875 0.09375 0  0.4375 0.09375 0  0.453125 0.09375 0  0.46875 0.09375 0  0.484375 0.09375 0  0.5 0.09375 0  0.515625 0.09375 0  0.53125 0.09375 0  0.546875 0.09375 0  0.5625 0.09375 0  0.578125 0.09375 0  0.59375 0.09375 0  0.609375 0.09375 0  0.625 0.09375 0  0.640625 0.09375 0  0.65625 0.09375 0  0.671875 0.09375 0  0.6875 0.09375 0  0.703125 0.09375 0  0.71875 0.09375 0  0.734375 0.09375 0  0.75 0.09375 0  0.765625 0.09375 0  0.78125 0.09375 0  0.796875 0.09375 0  0.8125 0.09375 0  0.828125 0.09375 0  0.84375 0.09375 0  0.859375 0.09375 0  0.875 0.09375 0  0.890625 0.09375 0  0.90625 0.09375 0  0.921875 0.09375 0  0.9375 0.09375 0  0.953125 0.09375 0  0.96875 0.09375 0  0.984375 0.09375 0  1 0.09375 0  0 0.109375 0  0.015625 0.109375 0  0.03125 0.109375 0  0.046875 0.109375 0  0.0625 0.109375 0  0.078125 0.109375 0  0.09375 0.109375 0  0.109375 0.109375 0  0.125 0.109375 0  0.140625 0.109375 0  0.15625 0.109375 0  0.171875 0.109375 0  0.1875 0.109375 0  0.203125 0.109375 0  0.21875 0.109375 0  0.234375 0.109375 0  0.25 0.109375 0  0.265625 0.109375 0  0.28125 0.109375 0  0.296875 0.109375 0  0.3125 0.109375 0  0.328125 0.109375 0  0.34375 0.109375 0  0.359375 0.109375 0  0.375 0.109375 0  0.390625 0.109375 0  0.40625 0.109375 0  0.421875 0.109375 0  0.4375 0.109375 0  0.453125 0.109375 0  0.46875 0.109375 0  0.484375 0.109375 0  0.5 0.109375 0  0.515625 0.109375 0  0.53125 0.109375 0  0.546875 0.109375 0  0.5625 0.109375 0  0.578125 0.109375 0  0.59375 0.109375 0  0.609375 0.109375 0  0.625 0.109375 0  0.640625 0.109375 0  0.65625 0.109375 0  0.671875 0.109375 0  0.6875 0.109375 0  0.703125 0.109375 0  0.71875 0.109375 0  0.734375 0.109375 0  0.75 0.109375 0  0.765625 0.109375 0  0.78125 0.109375 0  0.796875 0.109375 0  0.8125 0.109375 0  0.828125 0.109375 0  0.84375 0.109375 0  0.859375 0.109375 0  0.875 0.109375 0  0.890625 0.109375 0  0.90625 0.109375 0  0.921875 0.109375 0  0.9375 0.109375 0  0.953125 0.109375 0  0.96875 0.109375 0  0.984375 0.109375 0  1 0.109375 0  0 0.125 0  0.015625 0.125 0  0.03125 0.125 0  0.046875 0.125 0  0.0625 0.125 0  0.078125 0.125 0  0.09375 0.125 0  0.109375 0.125 0  0.125 0.12
[...]
<PointData  Scalars="f_14444"> 
<DataArray  type="Float64"  Name="f_14444"  format="ascii">4.5163992856968213e-15  4.6259766074373279e-15  4.8340497892820275e-15  5.0858674587050458e-15  5.3601509331062723e-15  5.6484902424566197e-15  5.9475342426993004e-15  6.2559570371001628e-15  6.5732689820844346e-15  6.8993484641076175e-15  7.2342594950261147e-15  7.5781877908198132e-15  7.9314358721390540e-15  8.2944654195914277e-15  8.6679947160295658e-15  9.0531390975233440e-15  9.4514647890393740e-15  9.8645233701737433e-15  1.0291937789231945e-14  1.0726728756918014e-14  1.1147097370700817e-14  1.1506230077347521e-14  1.1725675275154903e-14  1.1700873114620558e-14  1.1325211398277096e-14  1.0529371729388841e-14  9.3200095955707999e-15  7.7959010456486402e-15  6.1281624989066215e-15  4.5106896167453784e-15  3.1040873210841087e-15  1.9986076547668892e-15  1.2083895789926579e-15  6.9152217415802957e-16  3.8017710777979908e-16  2.0616062192307157e-16  1.1507471432494547e-16  6.9887426640099133e-17  4.8301980880682088e-17  3.8161244316245416e-17  3.3345069972497112e-17  3.0955769060424445e-17  2.9678062215385481e-17  2.8927633763990211e-17  2.8444567097214866e-17  2.8110131356192945e-17  2.7867075645262922e-17  2.7685471656127779e-17  2.7548040562579659e-17  2.7443739596669946e-17  2.7364870933981043e-17  2.7305718674186412e-17  2.7261866038644434e-17  2.7229825516279771e-17  2.7206818897570175e-17  2.7190632674765503e-17  2.7179513661316426e-17  2.7172087722504196e-17  2.7167293048811724e-17  2.7164323580562768e-17  2.7162580289895873e-17  2.7161629089004509e-17  2.7161164659274360e-17  2.7160979737144773e-17  2.7160939492949787e-17  4.5245891952306848e-15  4.6212623919568768e-15  4.8319202775230223e-15  5.0850174068223133e-15  5.3598123054133460e-15  5.6483559008588890e-15  5.9474838555025575e-15  6.2559438488867308e-15  6.5732768514321580e-15  6.8993791058847011e-15  7.2343416139755628e-15  7.5784298416115209e-15  7.9322096932730458e-15  8.2969753273987361e-15  8.6758607338105891e-15  9.0762843447540869e-15  9.5143740549375073e-15  1.0021018714057251e-14  1.0646364253042268e-14  1.1455292847441258e-14  1.2504056588571421e-14  1.3793892710316502e-14  1.5214723016742333e-14  1.6513613808152278e-14  1.7328655333395634e-14  1.7301498239676445e-14  1.6228515135371472e-14  1.4169810921467451e-14  1.1447024021113197e-14  8.5252714330698257e-15  5.8448189877274988e-15  3.6908174691002528e-15  2.1530925132815738e-15  1.1681410733428412e-15  5.9728213083440217e-16  2.9528985146361322e-16  1.4794048032608419e-16  8.0697957668017668e-17  5.1425909078379956e-17  3.8923820565020393e-17  3.3482487479376513e-17  3.0959839046393180e-17  2.9665403837031959e-17  2.8918481203078140e-17  2.8439464231810798e-17  2.8107362190126268e-17  2.7865483758208107e-17  2.7684471089275300e-17  2.7547354282285665e-17  2.7443235947650303e-17  2.7364484536652972e-17  2.7305414701601893e-17  2.7261624204045887e-17  2.7229632768851965e-17  2.7206665996499722e-17  2.7190512531841352e-17  2.7179420514889517e-17  2.7172016714153150e-17  2.7167239997544871e-17  2.7164284847520462e-17  2.7162552666639055e-17  2.7161609654163709e-17  2.7161150549029607e-17  2.7160967785673486e-17  2.7160925756083975e-17  4.5263860605192303e-15  4.6188044720493471e-15  4.8300654285755113e-15  5.0842240305645070e-15  5.3594930084608757e-15  5.6482291743046925e-15  5.9474372635684667e-15  6.2559354905970096e-15  6.5733012430685454e-15  6.8994833836402515e-15  7.2347608609935473e-15  7.5801576507756973e-15  7.9390894558494891e-15  8.3224954415829850e-15  8.7625830737218559e-15  9.3442198387627287e-15  1.0264383596425130e-14  1.1920072763822306e-14  1.4992716017942718e-14  2.0444154897385054e-14  2.9301844073443046e-14  4.2159787174184963e-14  5.8505775411106396e-14  7.6235730019046760e-14  9.1818348778793022e-14  1.0132010983050572e-13  1.0194614546828688e-13  9.3288233366400731e-14  7.7530686569245540e-14  5.8484211089046846e-14  4.0036832306133676e-14  2.4879941029814065e-14  1.4045112031892863e-14  7.2134708330008662e-15  3.3812128261650989e-15  1.4567332190577850e-15  5.8689631923192006e-16  2.3095021096580014e-16  9.7974753556808876e-17  5.1954848632432147e-17  3.6765654473564131e-17  3.1696462646791457e-17  2.9807887687193379e-17  2.8939305973010793e-17  2.8439691472521268e-17  2.8105486611038471e-17  2.7864043113926726e-17  2.7683500620478569e-17  2.7546676331306303e-17  2.7442735432345350e-17  2.7364099526453215e-17  2.7305111392255388e-17  2.7261382704204206e-17  2.7229440200482981e-17  2.7206513198711279e-17  2.7190392454440794e-17  2.7179327412744535e-17  2.7171945728549880e-17  2.7167186922306153e-17  2.7164245971183486e-17  2.7162524626336571e-17  2.7161589273056726e-17  2.7161134697090443e-17  2.7160953452269715e-17  2.7160910794733506e-17  4.5260793754468563e-15  4.6170975119145722e-15  4.8285791972356494e-15  5.0835014091744961e-15  5.3591933538722354e-15  5.6481103577722238e-15  5.9473975792954249e-15  6.2559504221659621e-15  6.5734493512670263e-15  6.9002533931175170e-15  7.2385357261006300e-15  7.5973788189267064e-15  8.0109225478767098e-15  8.5943944871241859e-15  9.6937280036151920e-15  1.2225907883932453e-14  1.8320251693086234e-14  3.2260922490182949e-14  6.1384256579984122e-14  1.1602639079346951e-13  2.0723609410593336e-13  3.4150572295099772e-13  5.1371805713339703e-13  7.0210214072129438e-13  8.6999709229300513e-13  9.7652760938164694e-13  9.9254076526157172e-13  9.1342890202205174e-13  7.6118322864350072e-13  5.7444663014618030e-13  3.9267549265353885e-13  2.4318383151515457e-13  1.3647855456807778e-13  6.9433460630635245e-14  3.2038315403411661e-14  1.3420966930854657e-14  5.1154664483433914e-15  1.7852214223546816e-15  5.8173805420979529e-16  1.8850626214516735e-16  7.1715754007182495e-17  3.9802183391187772e-17  3.1507474026657252e-17  2.9259051232795515e-17  2.8492111751355270e-17  2.8111923415733843e-17  2.7863820677592439e-17  2.7682699496935403e-17  2.7546023106544072e-17  2.7442239746274284e-17  2.7363716034800565e-17  2.7304808742092262e-17  2.7261141531770382e-17  2.7229247807555994e-17  2.7206360502154415e-17  2.7190272438518903e-17  2.7179234340910613e-17  2.7171874724193222e-17  2.7167133721862211e-17  2.7164206747644050e-17  2.7162495838910091e-17  2.7161567558551609e-17  2.7161116897452414e-17  2.7160936937536808e-17  2.7160894139835735e-17  4.5251168583640613e-15  4.6157071375459349e-15  4.8273848226207970e-15  5.0828623349129739e-15  5.3589156657390995e-15  5.6480028973275212e-15  5.9473890033189753e-15  6.2561516358543374e-15  6.5747328508147652e-15  6.9074146386615712e-15  7.2750269585966992e-15  7.7661521525820883e-15  8.7169803816822449e-15  1.1262829593932286e-14  1.8800849254001279e-14  4.0291997375797045e-14  9.6426630807493093e-14  2.2857533540074541e-13  5.0709602086510472e-13  1.0303073401352055e-12  1.9020626197896523e-12  3.1813432952992422e-12  4.8159228095580352e-12  6.5963251140506709e-12  8.1748027868009983e-12  9.1676758465377725e-12  9.3051982541602954e-12  8.5499542175390045e-12  7.1131873485714332e-12  5.3594181243536722e-12  3.6577451633515754e-12  2.2617249244581161e-12  1.2673138327647682e-12  6.4362904965108237e-13  2.9633970957246565e-13  1.2372653333435086e-13  4.6863183100903258e-14  1.6116490890091196e-14  5.0448037444401631e-15  1.4496329362717847e-15  3.9511388617552405e-16  1.1507351940650017e-16  4.7408838230119219e-17  3.2306465603524713e-17  2.9020602442368433e-17  2.8193914106313901e-17  2.7874515812799602e-17  2.7683340367167879e-17  2.7545546494567508e-17  2.7441765344909547e-17  2.7363335660730850e-17  2.7304506880914848e-17  2.7260900690775739e-17  2.7229055586721034e-17  2.7206207901706155e-17  2.7190152470660563e-17  2.7179141263835544e-17  2.7171803619828769e-17  2.7167080238543681e-17  2.7164166920977204e-17  2.7162465971175917e-17  2.7161544197195756e-17  2.7161096992338579e-17  2.7160918211155288e-17  2.7160875482962312e-17  4.5240016758021578e-15  4.6145058931984303e-15  4.8264045989019053e-15  5.0823060985170719e-15  5.3586646297895226e-15  5.6479337077381082e-15  5.9476207763078178e-15  6.2579805888545312e-15  6.5861532062062671e-15  6.9718657973069529e-15  7.6041928433053285e-15  9.2848747099967314e-15  1.5043604867711954e-14  3.5055670277485491e-14  9.9583925150610344e-14  2.8794584217611251e-13  7.8205837269297446e-13  1.9430972309644287e-12  4.3805458605841067e-12  8.9382017699054837e-12  1.6495017133459628e-11  2.7529160706854637e-11  4.1554933161918827e-11  5.6745146192279866e-11  7.0114994901879990e-11  7.8410039284446637e-11  7.9380224775264006e-11  7.2766433068253607e-11  6.0411877424552691e-11  4.5433525435066808e-11  3.0958506012966036e-11  1.9116847625093316e-11  1.0699560034489207e-11  5.4288497914514463e-12  2.4975865360751993e-12  1.0420408216693485e-12  3.9435643904034728e-13  1.3540876925391018e-13  4.2204386849953902e-14  1.1954922693182354e-14  3.0910889917049277e-15  7.4326574722404810e-16  1.8034398601117368e-16  5.7859792545362934e-17  3.3482532204677918e-17  2.8900968912388117e-17  2.7975575975772994e-17  2.7695877457528220e-17  2.7546499256359665e-17  2.7441449007833015e-17  2.7362972004427146e-17  2.7304207032462173e-17  2.7260660275966631e-17  2.7228863538949317e-17  2.7206055385239987e-17  2.7190032520938376e-17  2.7179048115946937e-17  2.7171732290084583e-17  2.7167026265991137e-17  2.7164126204778586e-17  2.7162434701174863e-17  2.7161518915767405e-17  2.7161074816256732e-17  2.7160897143917418e-17  2.7160854574960444e-17  4.5229128432584557e-15  4.6134521344873679e-15  4.8255827416274770e-15  5.0818235110316695e-15  5.3584648653860597e-15  5.6481321488705509e-15  5.9498085875952764e-15  6.2731826256934279e-15  6.6808644500944009e-15  7.5052180373814997e-15  1.0315649718483831e-14  2.1726130214755254e-14  6.6568394697998744e-14  2.2767562620243318e-13  7.4968550859693712e-13  2.2691826367906205e-12  6.2353965483239434e-12  1.5503333448623134e-11  3.4850237555351055e-11  7.0823613107243455e-11  1.3014108311988172e-10  2.1628176991991173e-10  3.2516915444844557e-10  4.4238260732310144e-10  5.4475102175193038e-10  6.0731828951213504e-10  6.1313238024959398e-10  5.6066991550757738e-10  4.6447828754563628e-10  3.4866941354370343e-10  2.3721021279457578e-10  1.4628551744224882e-10  8.1788522261474230e-11  4.1464784532607987e-11  1.9064909978651810e-11  7.9511742091901203e-12  3.0084597307222304e-12  1.0328912963996176e-12  3.2185377986058108e-13  9.1054288241477718e-14  2.3405209542696080e-14  5.4812526367460702e-15  1.1842147548709229e-15  2.5113702940149233e-16  6.7307823056158427e-17  3.4283277803460838e-17  2.8753992989421602e-17  2.7797770667918148e-17  2.7558195077160383e-17  2.7442311980524945e-17  2.7362727274300068e-17  2.7303918536140056e-17  2.7260421060779016e-17  2.7228671711722238e-17  2.7205902931505128e-17  2.7189912536338142e-17  2.7178954796225869e-17  2.7171660566100741e-17  2.7166971558984823e-17  2.7164084295734586e-17  2.7162401718495555e-17  2.7161491457785676e-17  2.7161050183435024e-17  2.7160873558585129e-17  2.7160831184804059e-17  4.5219119586774611e-15  4.6125193604485135e-15  4.8248728792070789e-15  5.0814257618165591e-15  5.3585476112828731e-15  5.6503220345244063e-15  5.9666868548556050e-15  6.3891556175988643e-15  7.4007245982413301e-15  1.1535047789836943e-14  3.0667830837160539e-14  1.1448060087847889e-13  4.4808841582623143e-13  1.6442070989990711e-12  5.4981405430737855e-12  1.6644094843522776e-11  4.5545874010271447e-11  1.1264271172590018e-10  2.5182348280209946e-10  5.0903449101698040e-10  9.3065124739939882e-10  1.5393831436488625e-09  2.3043743631469586e-09  3.1226651869875164e-09  3.8315588068123493e-09  4.2580114521328756e-09  4.2866232543122435e-09  3.9101181846536502e-09  3.2323122484667453e-09  2.4219387773663628e-09  1.6451776359383491e-09  1.0132867388606802e-09  5.6596529443946208e-10  2.8671601118405805e-10  1.3176060987233167e-10  5.4936214137022441e-11  2.0784608597355965e-11  7.1369019631345997e-12  2.2245599295510111e-12  6.2956428722851668e-13  1.6181852532361247e-13  3.7798376586368423e-14  8.0403949759857673e-15  1.5732517542707456e-15  2.9913172486399459e-16  7.1260621171601904e-17  3.4121630473469727e-17  2.8506831588130994e-17  2.7643119734393146e-17  2.7451234912265738e-17  2.7363293647713310e-17  2.7303705086210886e-17  2.7260188405089864e-17  2.7228480498792079e-17  2.7205750526354904e-17  2.7189792436731918e-17  2.7178861165821285e-17  2.7171588238970513e-17  2.7166915842234519e-17  2.7164040880719512e-17  2.7162366719938862e-17  2.7161461569718995e-17  2.7161022887130128e-17  2.7160847249846385e-17  2.7160805082175040e-17  4.5209782538358139e-15  4.6116714133873585e-15  4.8242963443356827e-15  5.0813726639209009e-15  5.3603901367645173e-15  5.6658897480784858e-15  6.0852175864467641e-15  7.2015294665813444e-15  1.2406004858274300e-14  3.9334509291155898e-14  1.6996985412656070e-13  7.4435674975946494e-13  3.0184286174008065e-12  1.1112377640178083e-11  3.6990888473943797e-11  1.1126110547573240e-10  3.0240698639973120e-10  7.4296230597589530e-10  1.6505107340685340e-09  3.3166511421886333e-09  6.0305815463300215e-09  9.9251141362631707e-09  1.4789611547451180e-08  1.9959039168424891e-08  2.4399998877747586e-08  2.7027318633861260e-08  2.7131006600578069e-08  2.4686407485622700e-08  2.0363476627802061e-08  1.5230566214337763e-08  1.0330338999214715e-08  6.3549080038834551e-09  3.5461778413734769e-09  1.7952645170953060e-09  8.2465853612347724e-10  3.4376441499193704e-10  1.3006353300539865e-10  4.4671440923987864e-11  1.3930383153177566e-11  3.9449675503294397e-12  1.0147869439773721e-12  2.3718892878406808e-13  5.0402902493481374e-14  9.7563230454236461e-15  1.7368949801933536e-15  3.0114295901701744e-16  6.7588611995823571e-17  3.2945762730709937e-17  2.8179601696455010e-17  2.7510071470402466e-17  2.7368904529473471e-17  2.7303958804091801e-17  2.7259995617247524e-17  2.7228292468875931e-17  2.7205598290460697e-17  2.7189672120005401e-17  2.7178767048445281e-17  2.7171515064286208e-17  2.7166858817093817e-17  2.7163995639748487e-17  2.7162329404537901e-17  2.7161428993391953e-17  2.7160992701352177e-17  2.7160817992253689e-17  2.7160776029682994e-17  4.5200801769028941e-15  4.6110575831186465e-15  4.8242471337083175e-15  5.0826554367309593e-15  5.3719050117753483e-15  5.7667826153891748e-15  6.8558500931474142e-15  1.2424917442195752e-14  4.4266401082579526e-14  2.1467725317625809e-13  1.0406097263030013e-12  4.6447354107545698e-12  1.8787477734492037e-11  6.8668707469159967e-11  2.2672504963352024e-10  6.7639377299216893e-10  1.8240136933934339e-09  4.4480311552907286e-09  9.8129386108832354e-09  1.9592578708630947e-08  3.5416072873983584e-08  5.7978136899124761e-08  8.5981654586833158e-08  1.1554009656323798e-07  1.4071471815939631e-07  1.5534934387410774e-07  1.5549497207667512e-07  1.4113242186294532e-07  1.1617200919415931e-07  8.6735526845927825e-08  5.8744486857349182e-08  3.6096412880482146e-08  2.0125181636561213e-08  1.0182333786170482e-08  4.6756466472093265e-09  1.9488632996403274e-09  7.3744520742305046e-10  2.5337081290335837e-10  7.9056917045831383e-11  2.2406196439171023e-11  5.7695702469810870e-12  1.3501661558096308e-12  2.8724845307636091e-13  5.5594800255809132e-14  9.8087620732547692e-15  1.5951205519297317e-15  2.5654590597980246e-16  5.8099972750310350e-17  3.1234666493265144e-17  2.7848680934111543e-17  2.7402951239664077e-17  2.7306861899768114e-17  2.7260029714295524e-17  2.7228122336842835e-17  2.7205447207122270e-17  2.7189551509812043e-17  2.7178672234908359e-17  2.7171440766847639e-17  2.7166800166216835e-17  2.7163948246622240e-17  2.7162289469283874e-17  2.7161393461855704e-17  2.7160959382493935e-17  2.7160785543373632e-17  2.7160743779141399e-17  4.5199693457153683e-15  4.6113021855616218e-15  4.8246962461309895e-15  5.0879278168872498e-15  5.4421346221854617e-15  6.3872345136411076e-15  1.1472799817285369e-14  4.3257862338304189e-14  2.3034785568840414e-13  1.2280585390077672e-12  6.0177613270661671e-12  2.6696770671188739e-11  1.0697085046551300e-10  3.8710072317178352e-10  1.2656144929929757e-09  3.7403582817646578e-09  9.9973388517050010e-09  2.4178683000511723e-08  5.2936819980246419e-08  1.0496324425908281e-07  1.8854885033286395e-07  3.0693594310873486e-07  4.5291652759155215e-07  6.0593623319488717e-07  7.3510835724550095e-07  8.0883021848040206e-07  8.0723877852846940e-07  7.3086279130434008e-07  6.0035049558907202e-07  4.4745794479518253e-07  3.0263535925147277e-07  1.8575859658527960e-07  1.0348630255861157e-07  5.2331933065412474e-08  2.4024230916223649e-08  1.0013473635633140e-08  3.7899426118931750e-09  1.3027501654955214e-09  4.0676928607167861e-10  1.1539412993893712e-10  2.9749031641388160e-11  6.9717096378696138e-12  1.4857043369729364e-12  2.8803630988414410e-13  5.0842345225158985e-14  8.1921780803782510e-15  1.2231505183795565e-15  1.8728169524207654e-16  4.6997865926879999e-17  2.9606815801886905e-17  2.7582216213980193e-17  2.7323397358828686e-17  2.7261241056458428e-17  2.7228045926576632e-17  2.7205302766073564e-17  2.7189430807835027e-17  2.7178576501757879e-17  2.7171365045658065e-17  2.7166739556593088e-17  2.7163898368436770e-17  2.7162246605806587e-17  2.7161354697082364e-17  2.7160922670404738e-17  2.7160749644977200e-17  2.7160708069622786e-17  4.5217960289486158e-15  4.6099500035325269e-15  4.8212042885397707e-15  5.1251667724877851e-15  5.8783104938414502e-15  9.8948239812539435e-15  3.6875714278422352e-14  2.1098936214565350e-13  1.2310248744878996e-12  6.6079668687651055e-12  3.2091878801421957e-11  1.4070285341958478e-10  5.5698393473287839e-10  1.9917815268931840e-09  6.4383380624028459e-09  1.8824495141654147e-08  4.9815276356459762e-08  1.1938120150927455e-07  2.5921073820423206e-07  5.1013694229632057e-07  9.1028366801215803e-07  1.4731038170995265e-06  2.1624359586003194e-06  2.8798800882397695e-06  3.4800104512805416e-06  3.8159706711898459e-06  3.7973789500088637e-06  3.4296411612350752e-06  2.8114350250463473e-06  2.0919433891546703e-06  1.4130018432852458e-06  8.6643633830940417e-07  4.8235287869930043e-07  2.4381735963767930e-07  1.1191245386900504e-07  4.6650394487822948e-08  1.7662508855091499e-08  6.0748615727937645e-09  1.8983913571834855e-09  5.3912942672298558e-10  1.3917713126677206e-10  3.2669363835058890e-11  6.9753757529295321e-12  1.3553122927864272e-12  2.3977732258567717e-13  3.8666091507125655e-14  5.7050038080496025e-15  7.8887913289172226e-16  1.2078265378965715e-16  3.7886856527039880e-17  2.8433598657908310e-17  2.7403575256817753e-17  2.7268004333572198e-17  2.7228417029563522e-17  2.7205191392176132e-17  2.7189311657330521e-17  2.7178479691222485e-17  2.7171287582069510e-17  2.7166676641602568e-17  2.7163845664631627e-17  2.7162200497888188e-17  2.7161312408596506e-17  2.7160882288978215e-17  2.7160710023407662e-17  2.7160668626333099e-17  4.5131933424624716e-15  4.5940253312946898e-15  4.8335327804237869e-15  5.4234512246895027e-15  8.2473836027584624e-15  2.7883202552102519e-14  1.6635441485089058e-13  1.0571692200282194e-12  6.2039440064847517e-12  3.2914028969407053e-11  1.5754364039895853e-10  6.8058716011703912e-10  2.6553541498372460e-09  9.3640593682726615e-09  2.9872994165050872e-08  8.6282304888840874e-08  2.2579106072681398e-07  5.3566435460037281e-07  1.1526113022906737e-06  2.2502457629695269e-06  3.9869883018931767e-06  6.4121836655788646e-06  9.3619481385869168e-06  1.2409699619936663e-05  1.4935312451702222e-05  1.6320774384860089e-05  1.6193903749248302e-05  1.4590015488111164e-05  1.1936102381338368e-05  8.8671233447419587e-06  5.9817765839985141e-06  3.6645671477724546e-06  2.0388399233134072e-06  1.0302449628826371e-06  4.7285823226992521e-07  1.9715104158378493e-07  7.4679143457927444e-08  2.5703827434649978e-08  8.0403379506186754e-09  2.2862566973517185e-09  5.9110619684308377e-10  1.3900646367634940e-10  2.9744116015893904e-11  5.7938429192042641e-12  1.0279751130723111e-12  1.6626000656135431e-13  2.4549828750587598e-14  3.3308556628800557e-15  4.3434126542211295e-16  7.33115994593