<?xml version="1.0"?>
<VTKFile type="UnstructuredGrid"  version="0.1"  >
<UnstructuredGrid>
<Piece  NumberOfPoints="4225" NumberOfCells="8192">
<Points>
<DataArray  type="Float64"  NumberOfComponents="3"  format="ascii">0 0 0  0.015625 0 0  0.03125 0 0  0.046875 0 0  0.0625 0 0  0.078125 0 0  0.09375 0 0  0.109375 0 0  0.125 0 0  0.140625 0 0  0.15625 0 0  0.171875 0 0  0.1875 0 0  0.203125 0 0  0.21875 0 0  0.234375 0 0  0.25 0 0  0.265625 0 0  0.28125 0 0  0.296875 0 0  0.3125 0 0  0.328125 0 0  0.34375 0 0  0.359375 0 0  0.375 0 0  0.390625 0 0  0.40625 0 0  0.421875 0 0  0.4375 0 0  0.453125 0 0  0.46875 0 0  0.484375 0 0  0.5 0 0  0.515625 0 0  0.53125 0 0  0.546875 0 0  0.5625 0 0  0.578125 0 0  0.59375 0 0  0.609375 0 0  0.625 0 0  0.640625 0 0  0.65625 0 0  0.671875 0 0  0.6875 0 0  0.703125 0 0  0.71875 0 0  0.734375 0 0  0.75 0 0  0.765625 0 0  0.78125 0 0  0.796875 0 0  0.8125 0 0  0.828125 0 0  0.84375 0 0  0.859375 0 0  0.875 0 0  0.890625 0 0  0.90625 0 0  0.921875 0 0  0.9375 0 0  0.953125 0 0  0.96875 0 0  0.984375 0 0  1 0 0  0 0.015625 0  0.015625 0.015625 0  0.03125 0.015625 0  0.046875 0.015625 0  0.0625 0.015625 0  0.078125 0.015625 0  0.09375 0.015625 0  0.109375 0.015625 0  0.125 0.015625 0  0.140625 0.015625 0  0.15625 0.015625 0  0.171875 0.015625 0  0.1875 0.015625 0  0.203125 0.015625 0  0.21875 0.015625 0  0.234375 0.015625 0  0.25 0.015625 0  0.265625 0.015625 0  0.28125 0.015625 0  0.296875 0.015625 0  0.3125 0.015625 0  0.328125 0.015625 0  0.34375 0.015625 0  0.359375 0.015625 0  0.375 0.015625 0  0.390625 0.015625 0  0.40625 0.015625 0  0.421875 0.015625 0  0.4375 0.015625 0  0.453125 0.015625 0  0.46875 0.015625 0  0.484375 0.015625 0  0.5 0.015625 0  0.515625 0.015625 0  0.53125 0.015625 0  0.546875 0.015625 0  0.5625 0.015625 0  0.578125 0.015625 0  0.59375 0.015625 0  0.609375 0.015625 0  0.625 0.015625 0  0.640625 0.015625 0  0.65625 0.015625 0  0.671875 0.015625 0  0.6875 0.015625 0  0.703125 0.015625 0  0.71875 0.015625 0  0.734375 0.015625 0  0.75 0.015625 0  0.765625 0.015625 0  0.78125 0.015625 0  0.796875 0.015625 0  0.8125 0.015625 0  0.828125 0.015625 0  0.84375 0.015625 0  0.859375 0.015625 0  0.875 0.015625 0  0.890625 0.015625 0  0.90625 0.015625 0  0.921875 0.015625 0  0.9375 0.015625 0  0.953125 0.015625 0  0.96875 0.015625 0  0.984375 0.015625 0  1 0.015625 0  0 0.03125 0  0.015625 0.03125 0  0.03125 0.03125 0  0.046875 0.03125 0  0.0625 0.03125 0  0.078125 0.03125 0  0.09375 0.03125 0  0.109375 0.03125 0  0.125 0.03125 0  0.140625 0.03125 0  0.15625 0.03125 0  0.171875 0.03125 0  0.1875 0.03125 0  0.203125 0.03125 0  0.21875 0.03125 0  0.234375 0.03125 0  0.25 0.03125 0  0.265625 0.03125 0  0.28125 0.03125 0  0.296875 0.03125 0  0.3125 0.03125 0  0.328125 0.03125 0  0.34375 0.03125 0  0.359375 0.03125 0  0.375 0.03125 0  0.390625 0.03125 0  0.40625 0.03125 0  0.421875 0.03125 0  0.4375 0.03125 0  0.453125 0.03125 0  0.46875 0.03125 0  0.484375 0.03125 0  0.5 0.03125 0  0.515625 0.03125 0  0.53125 0.03125 0  0.546875 0.03125 0  0.5625 0.03125 0  0.578125 0.03125 0  0.59375 0.03125 0  0.609375 0.03125 0  0.625 0.03125 0  0.640625 0.03125 0  0.65625 0.03125 0  0.671875 0.03125 0  0.6875 0.03125 0  0.703125 0.03125 0  0.71875 0.03125 0  0.734375 0.03125 0  0.75 0.03125 0  0.765625 0.03125 0  0.78125 0.03125 0  0.796875 0.03125 0  0.8125 0.03125 0  0.828125 0.03125 0  0.84375 0.03125 0  0.859375 0.03125 0  0.875 0.03125 0  0.890625 0.03125 0  0.90625 0.03125 0  0.921875 0.03125 0  0.9375 0.03125 0  0.953125 0.03125 0  0.96875 0.03125 0  0.984375 0.03125 0  1 0.03125 0  0 0.046875 0  0.015625 0.046875 0  0.03125 0.046875 0  0.046875 0.046875 0  0.0625 0.046875 0  0.078125 0.046875 0  0.09375 0.046875 0  0.109375 0.046875 0  0.125 0.046875 0  0.140625 0.046875 0  0.15625 0.046875 0  0.171875 0.046875 0  0.1875 0.046875 0  0.203125 0.046875 0  0.21875 0.046875 0  0.234375 0.046875 0  0.25 0.046875 0  0.265625 0.046875 0  0.28125 0.046875 0  0.296875 0.046875 0  0.3125 0.046875 0  0.328125 0.046875 0  0.34375 0.046875 0  0.359375 0.046875 0  0.375 0.046875 0  0.390625 0.046875 0  0.40625 0.046875 0  0.421875 0.046875 0  0.4375 0.046875 0  0.453125 0.046875 0  0.46875 0.046875 0  0.484375 0.046875 0  0.5 0.046875 0  0.515625 0.046875 0  0.53125 0.046875 0  0.546875 0.046875 0  0.5625 0.046875 0  0.578125 0.046875 0  0.59375 0.046875 0  0.609375 0.046875 0  0.625 0.046875 0  0.640625 0.046875 0  0.65625 0.046875 0  0.671875 0.046875 0  0.6875 0.046875 0  0.703125 0.046875 0  0.71875 0.046875 0  0.734375 0.046875 0  0.75 0.046875 0  0.765625 0.046875 0  0.78125 0.046875 0  0.796875 0.046875 0  0.8125 0.046875 0  0.828125 0.046875 0  0.84375 0.046875 0  0.859375 0.046875 0  0.875 0.046875 0  0.890625 0.046875 0  0.90625 0.046875 0  0.921875 0.046875 0  0.9375 0.046875 0  0.953125 0.046875 0  0.96875 0.046875 0  0.984375 0.046875 0  1 0.046875 0  0 0.0625 0  0.015625 0.0625 0  0.03125 0.0625 0  0.046875 0.0625 0  0.0625 0.0625 0  0.078125 0.0625 0  0.09375 0.0625 0  0.109375 0.0625 0  0.125 0.0625 0  0.140625 0.0625 0  0.15625 0.0625 0  0.171875 0.0625 0  0.1875 0.0625 0  0.203125 0.0625 0  0.21875 0.0625 0  0.234375 0.0625 0  0.25 0.0625 0  0.265625 0.0625 0  0.28125 0.0625 0  0.296875 0.0625 0  0.3125 0.0625 0  0.328125 0.0625 0  0.34375 0.0625 0  0.359375 0.0625 0  0.375 0.0625 0  0.390625 0.0625 0  0.40625 0.0625 0  0.421875 0.0625 0  0.4375 0.0625 0  0.453125 0.0625 0  0.46875 0.0625 0  0.484375 0.0625 0  0.5 0.0625 0  0.515625 0.0625 0  0.53125 0.0625 0  0.546875 0.0625 0  0.5625 0.0625 0  0.578125 0.0625 0  0.59375 0.0625 0  0.609375 0.0625 0  0.625 0.0625 0  0.640625 0.0625 0  0.65625 0.0625 0  0.671875 0.0625 0  0.6875 0.0625 0  0.703125 0.0625 0  0.71875 0.0625 0  0.734375 0.0625 0  0.75 0.0625 0  0.765625 0.0625 0  0.78125 0.0625 0  0.796875 0.0625 0  0.8125 0.0625 0  0.828125 0.0625 0  0.84375 0.0625 0  0.859375 0.0625 0  0.875 0.0625 0  0.890625 0.0625 0  0.90625 0.0625 0  0.921875 0.0625 0  0.9375 0.0625 0  0.953125 0.0625 0  0.96875 0.0625 0  0.984375 0.0625 0  1 0.0625 0  0 0.078125 0  0.015625 0.078125 0  0.03125 0.078125 0  0.046875 0.078125 0  0.0625 0.078125 0  0.078125 0.078125 0  0.09375 0.078125 0  0.109375 0.078125 0  0.125 0.078125 0  0.140625 0.078125 0  0.15625 0.078125 0  0.171875 0.078125 0  0.1875 0.078125 0  0.203125 0.078125 0  0.21875 0.078125 0  0.234375 0.078125 0  0.25 0.078125 0  0.265625 0.078125 0  0.28125 0.078125 0  0.296875 0.078125 0  0.3125 0.078125 0  0.328125 0.078125 0  0.34375 0.078125 0  0.359375 0.078125 0  0.375 0.078125 0  0.390625 0.078125 0  0.40625 0.078125 0  0.421875 0.078125 0  0.4375 0.078125 0  0.453125 0.078125 0  0.46875 0.078125 0  0.484375 0.078125 0  0.5 0.078125 0  0.515625 0.078125 0  0.53125 0.078125 0  0.546875 0.078125 0  0.5625 0.078125 0  0.578125 0.078125 0  0.59375 0.078125 0  0.609375 0.078125 0  0.625 0.078125 0  0.640625 0.078125 0  0.65625 0.078125 0  0.671875 0.078125 0  0.6875 0.078125 0  0.703125 0.078125 0  0.71875 0.078125 0  0.734375 0.078125 0  0.75 0.078125 0  0.765625 0.078125 0  0.78125 0.078125 0  0.796875 0.078125 0  0.8125 0.078125 0  0.828125 0.078125 0  0.84375 0.078125 0  0.859375 0.078125 0  0.875 0.078125 0  0.890625 0.078125 0  0.90625 0.078125 0  0.921875 0.078125 0  0.9375 0.078125 0  0.953125 0.078125 0  0.96875 0.078125 0  0.984375 0.078125 0  1 0.078125 0  0 0.09375 0  0.015625 0.09375 0  0.03125 0.09375 0  0.046875 0.09375 0  0.0625 0.09375 0  0.078125 0.09375 0  0.09375 0.09375 0  0.109375 0.09375 0  0.125 0.09375 0  0.140625 0.09375 0  0.15625 0.09375 0  0.171875 0.09375 0  0.1875 0.09375 0  0.203125 0.09375 0  0.21875 0.09375 0  0.234375 0.09375 0  0.25 0.09375 0  0.265625 0.09375 0  0.28125 0.09375 0  0.296875 0.09375 0  0.3125 0.09375 0  0.328125 0.09375 0  0.34375 0.09375 0  0.359375 0.09375 0  0.375 0.09375 0  0.390625 0.09375 0  0.40625 0.09375 0  0.421875 0.09375 0  0.4375 0.09375 0  0.453125 0.09375 0  0.46875 0.09375 0  0.484375 0.09375 0  0.5 0.09375 0  0.515625 0.09375 0  0.53125 0.09375 0  0.546875 0.09375 0  0.5625 0.09375 0  0.578125 0.09375 0  0.59375 0.09375 0  0.609375 0.09375 0  0.625 0.09375 0  0.640625 0.09375 0  0.65625 0.09375 0  0.671875 0.09375 0  0.6875 0.09375 0  0.703125 0.09375 0  0.71875 0.09375 0  0.734375 0.09375 0  0.75 0.09375 0  0.765625 0.09375 0  0.78125 0.09375 0  0.796875 0.09375 0  0.8125 0.09375 0  0.828125 0.09375 0  0.84375 0.09375 0  0.859375 0.09375 0  0.875 0.09375 0  0.890625 0.09375 0  0.90625 0.09375 0  0.921875 0.09375 0  0.9375 0.09375 0  0.953125 0.09375 0  0.96875 0.09375 0  0.984375 0.09375 0  1 0.09375 0  0 0.109375 0  0.015625 0.109375 0  0.03125 0.109375 0  0.046875 0.109375 0  0.0625 0.109375 0  0.078125 0.109375 0  0.09375 0.109375 0  0.109375 0.109375 0  0.125 0.109375 0  0.140625 0.109375 0  0.15625 0.109375 0  0.171875 0.109375 0  0.1875 0.109375 0  0.203125 0.109375 0  0.21875 0.109375 0  0.234375 0.109375 0  0.25 0.109375 0  0.265625 0.109375 0  0.28125 0.109375 0  0.296875 0.109375 0  0.3125 0.109375 0  0.328125 0.109375 0  0.34375 0.109375 0  0.359375 0.109375 0  0.375 0.109375 0  0.390625 0.109375 0  0.40625 0.109375 0  0.421875 0.109375 0  0.4375 0.109375 0  0.453125 0.109375 0  0.46875 0.109375 0  0.484375 0.109375 0  0.5 0.109375 0  0.515625 0.109375 0  0.53125 0.109375 0  0.546875 0.109375 0  0.5625 0.109375 0  0.578125 0.109375 0  0.59375 0.109375 0  0.609375 0.109375 0  0.625 0.109375 0  0.640625 0.109375 0  0.65625 0.109375 0  0.671875 0.109375 0  0.6875 0.109375 0  0.703125 0.109375 0  0.71875 0.109375 0  0.734375 0.109375 0  0.75 0.109375 0  0.765625 0.109375 0  0.78125 0.109375 0  0.796875 0.109375 0  0.8125 0.109375 0  0.828125 0.109375 0  0.84375 0.109375 0  0.859375 0.109375 0  0.875 0.109375 0  0.890625 0.109375 0  0.90625 0.109375 0  0.921875 0.109375 0  0.9375 0.109375 0  0.953125 0.109375 0  0.96875 0.109375 0  0.984375 0.109375 0  1 0.109375 0  0 0.125 0  0.015625 0.125 0  0.03125 0.125 0  0.046875 0.125 0  0.0625 0.125 0  0.078125 0.125 0  0.09375 0.125 0  0.109375 0.125 0  0.125 0.12
[...]
<PointData  Scalars="f_14444"> 
<DataArray  type="Float64"  Name="f_14444"  format="ascii">6.2095422309440117e-02  5.6591252586744988e-02  4.7305893940742048e-02  3.9137768336334894e-02  3.1918576427192855e-02  2.5639934112932555e-02  2.0271103446624760e-02  1.5760183011525222e-02  1.2038869724415438e-02  9.0270928998282627e-03  6.6377992294840401e-03  4.7815527242066379e-03  3.3706582347035148e-03  2.3225803857054640e-03  1.5625102096329280e-03  1.0250213308803887e-03  6.5484491450950070e-04  4.0686721377409705e-04  2.4550728022775431e-04  1.4366073924641383e-04  8.1398190899680431e-05  4.4587410550701791e-05  2.3573632958600520e-05  1.2009717514438877e-05  5.8855525952360318e-06  2.7696755904048179e-06  1.2493436182001273e-06  5.3921012181096293e-07  2.2225911638157651e-07  8.7333803893182895e-08  3.2652695870516181e-08  1.1594775907059446e-08  3.9030904881056699e-09  1.2432570344108237e-09  3.7405224572432214e-10  1.0610803856864636e-10  2.8330196247870077e-11  7.1071163259261365e-12  1.6724561844731748e-12  3.6857539285793251e-13  7.5948296968789575e-14  1.4610160695722036e-14  2.6198398798824183e-15  4.3724343924493410e-16  6.7818784893693112e-17  9.7611603033232762e-18  1.3017107828299882e-18  1.6058677980070078e-19  1.8297660291735562e-20  1.9230124882059917e-21  1.8676637502030590e-22  1.7440524442132577e-23  2.2808275339147535e-24  1.0373438081185200e-24  9.4409506524495925e-25  9.3771655332336119e-25  9.3731949697877210e-25  9.3729705763626894e-25  9.3729590900112631e-25  9.3729585586032581e-25  9.3729585364103803e-25  9.3729585355595519e-25  9.3729585355295254e-25  9.3729585356063568e-25  9.3729585360398571e-25  7.2674175910494979e-02  6.6168430346808096e-02  5.5474157576350255e-02  4.6337449511059246e-02  3.8163654336041956e-02  3.0969548431966559e-02  2.4743323518972918e-02  1.9447211740699900e-02  1.5022821936105348e-02  1.1395637735458576e-02  8.4799866693640938e-03  6.1840809270187749e-03  4.4147834297678865e-03  3.0818015319764571e-03  2.1010822635106194e-03  1.3972735555306127e-03  9.0521348166487040e-04  5.7050181876249536e-04  3.4928402959122080e-04  2.0742898228998130e-04  1.1930454371833011e-04  6.6350523136041376e-05  3.5621371826987667e-05  1.8429450131201291e-05  9.1724459521522926e-06  4.3837489605384654e-06  2.0081403410937776e-06  8.8006880952364306e-07  3.6828913656498147e-07  1.4688550835009753e-07  5.5725100247277898e-08  2.0070973572555494e-08  6.8501311138247644e-09  2.2111405943677327e-09  6.7376021202819016e-10  1.9344776769745910e-10  5.2240229513805986e-11  1.3245265337608238e-11  3.1476056753438516e-12  6.9989440676850045e-13  1.4537956322833476e-13  2.8164000120986807e-14  5.0806461565397312e-15  8.5211449132850974e-16  1.3266407394547976e-16  1.9142602827191380e-17  2.5558906516833528e-18  3.1524990274416575e-19  3.5858242709675948e-20  3.7550728312440822e-21  3.6200531159255299e-22  3.2770848404667267e-23  3.5040899520216823e-24  1.1261019105691858e-24  9.4993109866202827e-25  9.3806292919088817e-25  9.3733797073095880e-25  9.3729793869259053e-25  9.3729594661257711e-25  9.3729585756244934e-25  9.3729585399636517e-25  9.3729585386683506e-25  9.3729585385990369e-25  9.3729585385549834e-25  9.3729585384584441e-25  9.5043970003569136e-02  8.7655815553817448e-02  7.4859082207857391e-02  6.3658446179013894e-02  5.3347504944899551e-02  4.4068866916420070e-02  3.5858623638817526e-02  2.8716775239743659e-02  2.2613924738154927e-02  1.7494874266822304e-02  1.3283549119888532e-02  9.8886298122916032e-03  7.2094581599944042e-03  5.1417878276259349e-03  3.5829860038451662e-03  2.4363695496140768e-03  1.6144651706241099e-03  1.0411046860749921e-03  6.5238696902999950e-04  3.9664188124730352e-04  2.3360611976337332e-04  1.3305938929419748e-04  7.3171206410705485e-05  3.8779466396448015e-05  1.9771588562535837e-05  9.6794464879182724e-06  4.5415320493935935e-06  2.0382454851935563e-06  8.7329571005950033e-07  3.5649901995200048e-07  1.3838404303652734e-07  5.0978158061534858e-08  1.7786812849604945e-08  5.8665573318464271e-09  1.8256139949744428e-09  5.3501006534431908e-10  1.4738389447721742e-10  3.8098179711943592e-11  9.2253026670535927e-12  2.0891091619292063e-12  4.4172636187985723e-13  8.7074134990372560e-14  1.5978016122962336e-14  2.7253827230684303e-15  4.3151021653775737e-16  6.3330322106318918e-17  8.6038418057994579e-18  1.0805288799228498e-18  1.2526912058025988e-19  1.3388360974939247e-20  1.3179388187450503e-21  1.2002974728109195e-22  1.0822109818373118e-23  1.6893226113468005e-24  9.8966940729889931e-25  9.4063094765492555e-25  9.3748986724353730e-25  9.3730615907185598e-25  9.3729635413641809e-25  9.3729587666226580e-25  9.3729585544277699e-25  9.3729585458046850e-25  9.3729585454624655e-25  9.3729585454142464e-25  9.3729585453527607e-25  1.2360263009318230e-01  1.1507684878732914e-01  9.9895620734376675e-02  8.6331645542276278e-02  7.3556611646507356e-02  6.1812719385574970e-02  5.1186970249919778e-02  4.1734700153454929e-02  3.3474031924941403e-02  2.6386728493314131e-02  2.0422087874170557e-02  1.5502343267733247e-02  1.1529140220535168e-02  8.3905762320450987e-03  5.9682516288323256e-03  4.1438070667016826e-03  2.8045055700071774e-03  1.8475448325502629e-03  1.1829407272022747e-03  7.3498347623080287e-04  4.4241122208716591e-04  2.5755307023725107e-04  1.4475351073065564e-04  7.8400000363423980e-05  4.0841843210097127e-05  2.0424520843987287e-05  9.7856729642407250e-06  4.4827044474180633e-06  1.9593202094228943e-06  8.1542313628553007e-07  3.2245178041963392e-07  1.2090450503820986e-07  4.2895576123316118e-08  1.4370774813962499e-08  4.5369494749351105e-09  1.3470969731304425e-09  3.7543910157016367e-10  9.8030628364793265e-11  2.3936666807366045e-11  5.4558756982609961e-12  1.1587840247334592e-12  2.2894491776561180e-13  4.2006056989989802e-14  7.1450823616423880e-15  1.1247801323666291e-15  1.6357522670500177e-16  2.1934904729271742e-17  2.7066379384649103e-18  3.0662255448937056e-19  3.1806497056392009e-20  3.0122510498128952e-21  2.6014803741112354e-22  2.1119454002908821e-23  2.3486054630371719e-24  1.0250004561781467e-24  9.4205523152209451e-25  9.3751388095770248e-25  9.3730361023221665e-25  9.3729600507238412e-25  9.3729584981537531e-25  9.3729585451684211e-25  9.3729585527322369e-25  9.3729585532544906e-25  9.3729585532709623e-25  9.3729585532566763e-25  1.5749703330139941e-01  1.4789049849920358e-01  1.3049635571961593e-01  1.1462481376557039e-01  9.9310839430828662e-02  8.4901969346195927e-02  7.1555801387802639e-02  5.9404321543353927e-02  4.8534980992139418e-02  3.8989545016727405e-02  3.0765650086058458e-02  2.3820501059438705e-02  1.8076637936097959e-02  1.3429293935028628e-02  9.7547199050348216e-03  6.9187787393253028e-03  4.7851184865964702e-03  3.2223162874863605e-03  2.1095362421002257e-03  1.3404408452030515e-03  8.2530812035527725e-04  4.9150320273662318e-04  2.8260592902221095e-04  1.5658644495480334e-04  8.3443146132835237e-05  4.2678708497675791e-05  2.0908090599604459e-05  9.7899388851631008e-06  4.3719366384948000e-06  1.8580278509442999e-06  7.4983684914643596e-07  2.8672799662963068e-07  1.0366235123872298e-07  3.5358207538215185e-08  1.1354425225304583e-08  3.4257442336497432e-09  9.6915775542736599e-10  2.5659473715597646e-10  6.3461480292982379e-11  1.4635589002421178e-11  3.1420240955533039e-12  6.2690662158822861e-13  1.1606920449106934e-13  1.9911759780279123e-14  3.1605948115444811e-15  4.6356870286848954e-16  6.2748165100470244e-17  7.8294524550209761e-18  8.9964931128289270e-19  9.5125703475964427e-20  9.2525764102258694e-21  8.2872003854178924e-22  6.9143347667665176e-23  6.1241519701565277e-24  1.3027473216247896e-24  9.6128881445952236e-25  9.3877452072410688e-25  9.3738208036916604e-25  9.3730064392136646e-25  9.3729610993611633e-25  9.3729586897520608e-25  9.3729585678355062e-25  9.3729585620074659e-25  9.3729585617473381e-25  9.3729585617375926e-25  1.9632583542695975e-01  1.8592349949303960e-01  1.6678977992175040e-01  1.4891044948110724e-01  1.3119894004343977e-01  1.1411364910981162e-01  9.7892592117888200e-02  8.2758524765146724e-02  6.8887979277076225e-02  5.6407170013083603e-02  4.5389165006781036e-02  3.5853936834468414e-02  2.7771511610274739e-02  2.1067915041775440e-02  1.5633388661885746e-02  1.1332140897496379e-02  8.0127636707985703e-03  5.5184115942165804e-03  3.6959154809113369e-03  2.4031756645549757e-03  1.5144273410466797e-03  9.2325064713003654e-04  5.4346761231406670e-04  3.0828500815983418e-04  1.6817710840186671e-04  8.8044051196117386e-05  4.4137724218766372e-05  2.1141409910776549e-05  9.6536861242348327e-06  4.1927384852298681e-06  1.7280353633357483e-06  6.7431583313734585e-07  2.4856646879713371e-07  8.6360636261153643e-08  2.8218101375149239e-08  8.6526104336366260e-09  2.4846847085405430e-09  6.6685218085132728e-10  1.6694964074236356e-10  3.8916806288488652e-11  8.4317261569173882e-12  1.6950634916264899e-12  3.1567058747788462e-13  5.4371114641273172e-14  8.6477795363152169e-15  1.2681048917432762e-15  1.7116271970111161e-16  2.1227895624077697e-17  2.4143520583468165e-18  2.5124195891642640e-19  2.3852694170563964e-20  2.0586402722956505e-21  1.6131654625606273e-22  1.2123588837514569e-23  1.6234675790517062e-24  9.7296033960149389e-25  9.3871285880253463e-25  9.3732021876914956e-25  9.3729334040765522e-25  9.3729549559455691e-25  9.3729582685149422e-25  9.3729585506988080e-25  9.3729585696599984e-25  9.3729585707521796e-25  9.3729585708084600e-25  2.3924049919581775e-01  2.2851149721319755e-01  2.0842094879335213e-01  1.8913085938400642e-01  1.6945831118180799e-01  1.4996005024357581e-01  1.3095014512804765e-01  1.1274650084283043e-01  9.5627942667101770e-02  7.9826012912392053e-02  6.5516182523536401e-02  5.2812357309050970e-02  4.1765120469440295e-02  3.2363840449074935e-02  2.4542476541147318e-02  1.8188553389266570e-02  1.3154459205446072e-02  9.2699966273270141e-03  6.3550167875714211e-03  4.2310164124661140e-03  2.7307706079532888e-03  1.7053807387140184e-03  1.0284862345264886e-03  5.9775826371355706e-04  3.3410063062410691e-04  1.7918293823598858e-04  9.2002302919435064e-05  4.5120593204261240e-05  2.1086174779874592e-05  9.3675897688839272e-06  3.9465620342084876e-06  1.5729889514375574e-06  5.9171233859099083e-07  2.0958075117587649e-07  6.9734467820221239e-08  2.1748364803303456e-08  6.3438067913200944e-09  1.7270955871195726e-09  4.3799100292565750e-10  1.0327075540801698e-10  2.2598267458674842e-11  4.5816328191916090e-12  8.5923250987192320e-13  1.4882513953572335e-13  2.3772463382793755e-14  3.4969095173439270e-15  4.7305060034858507e-16  5.8771628485194401e-17  6.6976841209218122e-18  6.9937007071965589e-19  6.6863101479703381e-20  5.8528182426133818e-21  4.7035521979381214e-22  3.5575276335374292e-23  3.3075442280024736e-24  1.0900356450433280e-24  9.4679617353365859e-25  9.3788404868871002e-25  9.3733298214089980e-25  9.3729824902573005e-25  9.3729601160662147e-25  9.3729586757723106e-25  9.3729585860930714e-25  9.3729585808418241e-25  9.3729585805778797e-25  2.8478743039590793e-01  2.7436886624405299e-01  2.5442613961819144e-01  2.3465557327509332e-01  2.1380940598508708e-01  1.9251049784040336e-01  1.7112906921789489e-01  1.5006783821966477e-01  1.2970788351899334e-01  1.1039649217831472e-01  9.2431895831067853e-02  7.6050864751239261e-02  6.1419871137790079e-02  4.8630612157038677e-02  3.7700353544562339e-02  2.8577097334932966e-02  2.1149092898335206e-02  1.5257753213419063e-02  1.0712677520409745e-02  7.3072791020052982e-03  4.8335131282645893e-03  3.0944015144112129e-03  1.9134285114602537e-03  1.1403662866324611e-03  6.5359583017069009e-04  3.5942435850458085e-04  1.8919415640519306e-04  9.5093615234802793e-05  4.5525878941411449e-05  2.0707783119807524e-05  8.9263627163629389e-06  3.6372982142505680e-06  1.3975050604750287e-06  5.0503550683643104e-07  1.7125129148096098e-07  5.4358996172600105e-08  1.6115951663070283e-08  4.4530000743233231e-09  1.1443898126461243e-09  2.7301117423187314e-10  6.0350420504866650e-11  1.2340336991323446e-11  2.3303159395198553e-12  4.0576329261983815e-13  6.5051504959842043e-14  9.5883396036064031e-15  1.2975175428760978e-15  1.6096926702488935e-16  1.8280312111259762e-17  1.8972779308721099e-18  1.7962689851553699e-19  1.5476920089649974e-20  1.2100874509475454e-21  8.6099736200681940e-23  6.2806883496419185e-24  1.2278676167259000e-24  9.4995478012450763e-25  9.3759983083133377e-25  9.3727871061755239e-25  9.3729242753947442e-25  9.3729550912292650e-25  9.3729583070700457e-25  9.3729585710399718e-25  9.3729585897644929e-25  9.3729585908714633e-25  3.3090247736903933e-01  3.2156713361434197e-01  3.0316118586163876e-01  2.8416072010026144e-01  2.6329519765257242e-01  2.4120253150695586e-01  2.1827193075903395e-01  1.9496131314616030e-01  1.7173458141975501e-01  1.4904735258845303e-01  1.2732617464022086e-01  1.0694909908873403e-01  8.8228530404213162e-02  7.1397859615883422e-02  5.6603144562726054e-02  4.3900688773295157e-02  3.3260821478587631e-02  2.4577539116515754e-02  1.7683019978115489e-02  1.2365468282849136e-02  8.3883789815938567e-03  5.5092129275488870e-03  3.4956626572439147e-03  2.1381444270755427e-03  1.2577890890726620e-03  7.0989964788139128e-04  3.8346241784926419e-04  1.9772974426752229e-04  9.7074624050065583e-05  4.5255050691605867e-05  1.9979731064453772e-05  8.3311905874936294e-06  3.2723746143397879e-06  1.2075952927222067e-06  4.1761519086158547e-07  1.3500835005736352e-07  4.0705564549797943e-08  1.1420549118850949e-08  2.9754097724519347e-09  7.1841635193537946e-10  1.6046257802020426e-10  3.3097135805487427e-11  6.2939712043782274e-12  1.1018355458416945e-12  1.7731299401992055e-13  2.6193670646405145e-14  3.5473403367524775e-15  4.3983585058459619e-16  4.9865358091888606e-17  5.1627398990388966e-18  4.8755350791002509e-19  4.1958088459905510e-20  3.2899711722869224e-21  2.3604952439861943e-22  1.6334453735314522e-23  1.8731535350512381e-24  9.9173179404725984e-25  9.4050830037795539e-25  9.3750289366732594e-25  9.3731089732251059e-25  9.3729703650105519e-25  9.3729595231049485e-25  9.3729586706934054e-25  9.3729586068935413e-25  9.3729586028170628e-25  3.7499754751393027e-01  3.6759279282695717e-01  3.5229978896110059e-01  3.3557082499705215e-01  3.1616904624903092e-01  2.9468084823931195e-01  2.7146144542461742e-01  2.4697400413451093e-01  2.2172288509192453e-01  1.9624064036867281e-01  1.7106450395177814e-01  1.4671180756377408e-01  1.2365514862479461e-01  1.0229932906301725e-01  8.2962081111051938e-02  6.5860431153671281e-02  5.1104137198701251e-02  3.8696979834023648e-02  2.8545854647158087e-02  2.0476712449895892e-02  1.4255561583759301e-02  9.6121324671923272e-03  6.2635335378218920e-03  3.9353681441137919e-03  2.3783201875542097e-03  1.3790505999525602e-03  7.6520533085646097e-04  4.0521824754638996e-04  2.0422446035449991e-04  9.7680217403130586e-05  4.4212589702881872e-05  1.8883643170660728e-05  7.5892392468428659e-06  2.8620698228544480e-06  1.0101024119856139e-06  3.3276288028996779e-07  1.0207647116488369e-07  2.9089531148619889e-08  7.6847963588643547e-09  1.8782037905401515e-09  4.2389849133103323e-10  8.8194968413955745e-11  1.6888709801844097e-11  2.9721758490111746e-12  4.8003284349786456e-13  7.1057259488895357e-14  9.6278675648640024e-15  1.1925880413841311e-15  1.3487965207346946e-16  1.3910655462015377e-17  1.3065379969028355e-18  1.1159625314222413e-19  8.6540085677714780e-21  6.0851459724471458e-22  3.9384820043151799e-23  3.1048684173045706e-24  1.0425823760676713e-24  9.4118688377130795e-25  9.3732778088277275e-25  9.3728187975323467e-25  9.3729379748802415e-25  9.3729564726431420e-25  9.3729584247293693e-25  9.3729585994287261e-25  9.3729586121147254e-25  4.1414728679786478e-01  4.0950686411527032e-01  3.9893711445689400e-01  3.8610262311641935e-01  3.6987272566310531e-01  3.5070783869158378e-01  3.2886664668182142e-01  3.0475117726381284e-01  2.7884189823152011e-01  2.5169044069932861e-01  2.2389792936362204e-01  1.9608938449387581e-01  1.6888441099894058e-01  1.4286622030809715e-01  1.1855137799287369e-01  9.6362938575415669e-02  7.6609600806686745e-02  5.9473136506119566e-02  4.5005604660323009e-02  3.3136814024725326e-02  2.3691268578229639e-02  1.6412609628126275e-02  1.0992577532297012e-02  7.1009620264670011e-03  4.4130308723354375e-03  2.6315427623787579e-03  1.5015434985500306e-03  8.1747416025267745e-04  4.2338505549598284e-04  2.0797526258241032e-04  9.6600021302738114e-05  4.2296764847629387e-05  1.7405749301924985e-05  6.7120840451056590e-06  2.4186412769610121e-06  8.1220291092483854e-07  2.5353319117478419e-07  7.3393057872187532e-08  1.9659597114733021e-08  4.8631701082198252e-09  1.1088886270083110e-09  2.3267268256384691e-10  4.4855623299959621e-11  7.9337530652197246e-12  1.2857281743096929e-12  1.9066881997195010e-13  2.5843155432785933e-14  3.1977011017064924e-15  3.6079204045831410e-16  3.7077309577765868e-17  3.4665953866570175e-18  2.9455847641620051e-19  2.2725371884871657e-20  1.5917631300814856e-21  1.0205253985717074e-22  6.7971636603347278e-24  1.2516164776377304e-24  9.5362465946603352e-25  9.3820957544794917e-25  9.3735906311443636e-25  9.3730132686300983e-25  9.3729638111993224e-25  9.3729591097844575e-25  9.3729586689248925e-25  9.3729586342192924e-25  4.4537019532471578e-01  4.4420856201220099e-01  4.3981230233254653e-01  4.3243523174024850e-01  4.2114033776256105e-01  4.0619139713279429e-01  3.8768927250366397e-01  3.6590143224606020e-01  3.4120515542380614e-01  3.1409050128703814e-01  2.8514605202078092e-01  2.5503829830153396e-01  2.2448369305059601e-01  1.9421476515994468e-01  1.6494235327775203e-01  1.3731680172119842e-01  1.1189152334439706e-01  8.9092551287849292e-02  6.9197454638304526e-02  5.2326218922114726e-02  3.8445416858162156e-02  2.7385353753632824e-02  1.8868110707810051e-02  1.2542851039344769e-02  8.0237383488395327e-03  4.9255992553771371e-03  2.8931424619725258e-03  1.6209852633630971e-03  8.6359485890861629e-04  4.3606655290668244e-04  2.0800859237829456e-04  9.3427208575232808e-05  3.9385056918014433e-05  1.5534686080873795e-05  5.7160382516114917e-06  1.9565617401839211e-06  6.2139308715861561e-07  1.8267175839822140e-07  4.9597031726691063e-08  1.2412314007328405e-08  2.8580950044104025e-09  6.0452496408801123e-10  1.1727788124312130e-10  2.0839487076531074e-11  3.3874745136488663e-12  5.0311460568841161e-13  6.8197626310610031e-14  8.4277272337428585e-15  9.4848259827345791e-16  9.7111664331516580e-17  9.0361978863598526e-18  7.6334904635006480e-19  5.8483460060777775e-20  4.0597473938151196e-21  2.5571547019740154e-22  1.5355983867763320e-23  1.6660111020991609e-24  9.6905232635361331e-25  9.3830618443595254e-25  9.3728863476544479e-25  9.3728972245099962e-25  9.3729497567244549e-25  9.3729576364160931e-25  9.3729585411327286e-25  9.3729586216210419e-25  4.6597563454703050e-01  4.6878082341834937e-01  4.7164004429777034e-01  4.7101110044969180e-01  4.6624835618413957e-01  4.5736574879638459e-01  4.4425982187021901e-01  4.2699709329740571e-01  4.0577076455362243e-01  3.8091709072355734e-01  3.5291367635018167e-01  3.2237040438465242e-01  2.9001042630343721e-01  2.5664128655605278e-01  2.2311703365184704e-01  1.9029334261054540e-01  1.5897884152972777e-01  1.2988684207714388e-01  1.0359230586130500e-01  8.0498926769259765e-02  6.0820517568396015e-02  4.4579410581541107e-02  3.1622431515119717e-02  2.1652487538894243e-02  1.4271401601468468e-02  9.0278792367335606e-03  5.4638812171724756e-03  3.1533996003280888e-03  1.7295297459752666e-03  8.9829669033677736e-04  4.4026307614453098e-04  2.0289742645454795e-04  8.7624068223532645e-05  3.5344930206297906e-05  1.3275301212695102e-05  4.6294294788072974e-06  1.4949662271782287e-06  4.4598000581651773e-07  1.2264225732500922e-07  3.1028536743237355e-08  7.2097621125863785e-09  1.5361637060196606e-09  2.9970581765349011e-10  5.3472831408124998e-11  8.7143594683790026e-12  1.2957496830734692e-12  1.7560453147108277e-13  2.1669267376215317e-14  2.4323460684582787e-15  2.48123682907