<?xml version="1.0"?>
<VTKFile type="UnstructuredGrid"  version="0.1"  >
<UnstructuredGrid>
<Piece  NumberOfPoints="4225" NumberOfCells="8192">
<Points>
<DataArray  type="Float64"  NumberOfComponents="3"  format="ascii">0 0 0  0.015625 0 0  0.03125 0 0  0.046875 0 0  0.0625 0 0  0.078125 0 0  0.09375 0 0  0.109375 0 0  0.125 0 0  0.140625 0 0  0.15625 0 0  0.171875 0 0  0.1875 0 0  0.203125 0 0  0.21875 0 0  0.234375 0 0  0.25 0 0  0.265625 0 0  0.28125 0 0  0.296875 0 0  0.3125 0 0  0.328125 0 0  0.34375 0 0  0.359375 0 0  0.375 0 0  0.390625 0 0  0.40625 0 0  0.421875 0 0  0.4375 0 0  0.453125 0 0  0.46875 0 0  0.484375 0 0  0.5 0 0  0.515625 0 0  0.53125 0 0  0.546875 0 0  0.5625 0 0  0.578125 0 0  0.59375 0 0  0.609375 0 0  0.625 0 0  0.640625 0 0  0.65625 0 0  0.671875 0 0  0.6875 0 0  0.703125 0 0  0.71875 0 0  0.734375 0 0  0.75 0 0  0.765625 0 0  0.78125 0 0  0.796875 0 0  0.8125 0 0  0.828125 0 0  0.84375 0 0  0.859375 0 0  0.875 0 0  0.890625 0 0  0.90625 0 0  0.921875 0 0  0.9375 0 0  0.953125 0 0  0.96875 0 0  0.984375 0 0  1 0 0  0 0.015625 0  0.015625 0.015625 0  0.03125 0.015625 0  0.046875 0.015625 0  0.0625 0.015625 0  0.078125 0.015625 0  0.09375 0.015625 0  0.109375 0.015625 0  0.125 0.015625 0  0.140625 0.015625 0  0.15625 0.015625 0  0.171875 0.015625 0  0.1875 0.015625 0  0.203125 0.015625 0  0.21875 0.015625 0  0.234375 0.015625 0  0.25 0.015625 0  0.265625 0.015625 0  0.28125 0.015625 0  0.296875 0.015625 0  0.3125 0.015625 0  0.328125 0.015625 0  0.34375 0.015625 0  0.359375 0.015625 0  0.375 0.015625 0  0.390625 0.015625 0  0.40625 0.015625 0  0.421875 0.015625 0  0.4375 0.015625 0  0.453125 0.015625 0  0.46875 0.015625 0  0.484375 0.015625 0  0.5 0.015625 0  0.515625 0.015625 0  0.53125 0.015625 0  0.546875 0.015625 0  0.5625 0.015625 0  0.578125 0.015625 0  0.59375 0.015625 0  0.609375 0.015625 0  0.625 0.015625 0  0.640625 0.015625 0  0.65625 0.015625 0  0.671875 0.015625 0  0.6875 0.015625 0  0.703125 0.015625 0  0.71875 0.015625 0  0.734375 0.015625 0  0.75 0.015625 0  0.765625 0.015625 0  0.78125 0.015625 0  0.796875 0.015625 0  0.8125 0.015625 0  0.828125 0.015625 0  0.84375 0.015625 0  0.859375 0.015625 0  0.875 0.015625 0  0.890625 0.015625 0  0.90625 0.015625 0  0.921875 0.015625 0  0.9375 0.015625 0  0.953125 0.015625 0  0.96875 0.015625 0  0.984375 0.015625 0  1 0.015625 0  0 0.03125 0  0.015625 0.03125 0  0.03125 0.03125 0  0.046875 0.03125 0  0.0625 0.03125 0  0.078125 0.03125 0  0.09375 0.03125 0  0.109375 0.03125 0  0.125 0.03125 0  0.140625 0.03125 0  0.15625 0.03125 0  0.171875 0.03125 0  0.1875 0.03125 0  0.203125 0.03125 0  0.21875 0.03125 0  0.234375 0.03125 0  0.25 0.03125 0  0.265625 0.03125 0  0.28125 0.03125 0  0.296875 0.03125 0  0.3125 0.03125 0  0.328125 0.03125 0  0.34375 0.03125 0  0.359375 0.03125 0  0.375 0.03125 0  0.390625 0.03125 0  0.40625 0.03125 0  0.421875 0.03125 0  0.4375 0.03125 0  0.453125 0.03125 0  0.46875 0.03125 0  0.484375 0.03125 0  0.5 0.03125 0  0.515625 0.03125 0  0.53125 0.03125 0  0.546875 0.03125 0  0.5625 0.03125 0  0.578125 0.03125 0  0.59375 0.03125 0  0.609375 0.03125 0  0.625 0.03125 0  0.640625 0.03125 0  0.65625 0.03125 0  0.671875 0.03125 0  0.6875 0.03125 0  0.703125 0.03125 0  0.71875 0.03125 0  0.734375 0.03125 0  0.75 0.03125 0  0.765625 0.03125 0  0.78125 0.03125 0  0.796875 0.03125 0  0.8125 0.03125 0  0.828125 0.03125 0  0.84375 0.03125 0  0.859375 0.03125 0  0.875 0.03125 0  0.890625 0.03125 0  0.90625 0.03125 0  0.921875 0.03125 0  0.9375 0.03125 0  0.953125 0.03125 0  0.96875 0.03125 0  0.984375 0.03125 0  1 0.03125 0  0 0.046875 0  0.015625 0.046875 0  0.03125 0.046875 0  0.046875 0.046875 0  0.0625 0.046875 0  0.078125 0.046875 0  0.09375 0.046875 0  0.109375 0.046875 0  0.125 0.046875 0  0.140625 0.046875 0  0.15625 0.046875 0  0.171875 0.046875 0  0.1875 0.046875 0  0.203125 0.046875 0  0.21875 0.046875 0  0.234375 0.046875 0  0.25 0.046875 0  0.265625 0.046875 0  0.28125 0.046875 0  0.296875 0.046875 0  0.3125 0.046875 0  0.328125 0.046875 0  0.34375 0.046875 0  0.359375 0.046875 0  0.375 0.046875 0  0.390625 0.046875 0  0.40625 0.046875 0  0.421875 0.046875 0  0.4375 0.046875 0  0.453125 0.046875 0  0.46875 0.046875 0  0.484375 0.046875 0  0.5 0.046875 0  0.515625 0.046875 0  0.53125 0.046875 0  0.546875 0.046875 0  0.5625 0.046875 0  0.578125 0.046875 0  0.59375 0.046875 0  0.609375 0.046875 0  0.625 0.046875 0  0.640625 0.046875 0  0.65625 0.046875 0  0.671875 0.046875 0  0.6875 0.046875 0  0.703125 0.046875 0  0.71875 0.046875 0  0.734375 0.046875 0  0.75 0.046875 0  0.765625 0.046875 0  0.78125 0.046875 0  0.796875 0.046875 0  0.8125 0.046875 0  0.828125 0.046875 0  0.84375 0.046875 0  0.859375 0.046875 0  0.875 0.046875 0  0.890625 0.046875 0  0.90625 0.046875 0  0.921875 0.046875 0  0.9375 0.046875 0  0.953125 0.046875 0  0.96875 0.046875 0  0.984375 0.046875 0  1 0.046875 0  0 0.0625 0  0.015625 0.0625 0  0.03125 0.0625 0  0.046875 0.0625 0  0.0625 0.0625 0  0.078125 0.0625 0  0.09375 0.0625 0  0.109375 0.0625 0  0.125 0.0625 0  0.140625 0.0625 0  0.15625 0.0625 0  0.171875 0.0625 0  0.1875 0.0625 0  0.203125 0.0625 0  0.21875 0.0625 0  0.234375 0.0625 0  0.25 0.0625 0  0.265625 0.0625 0  0.28125 0.0625 0  0.296875 0.0625 0  0.3125 0.0625 0  0.328125 0.0625 0  0.34375 0.0625 0  0.359375 0.0625 0  0.375 0.0625 0  0.390625 0.0625 0  0.40625 0.0625 0  0.421875 0.0625 0  0.4375 0.0625 0  0.453125 0.0625 0  0.46875 0.0625 0  0.484375 0.0625 0  0.5 0.0625 0  0.515625 0.0625 0  0.53125 0.0625 0  0.546875 0.0625 0  0.5625 0.0625 0  0.578125 0.0625 0  0.59375 0.0625 0  0.609375 0.0625 0  0.625 0.0625 0  0.640625 0.0625 0  0.65625 0.0625 0  0.671875 0.0625 0  0.6875 0.0625 0  0.703125 0.0625 0  0.71875 0.0625 0  0.734375 0.0625 0  0.75 0.0625 0  0.765625 0.0625 0  0.78125 0.0625 0  0.796875 0.0625 0  0.8125 0.0625 0  0.828125 0.0625 0  0.84375 0.0625 0  0.859375 0.0625 0  0.875 0.0625 0  0.890625 0.0625 0  0.90625 0.0625 0  0.921875 0.0625 0  0.9375 0.0625 0  0.953125 0.0625 0  0.96875 0.0625 0  0.984375 0.0625 0  1 0.0625 0  0 0.078125 0  0.015625 0.078125 0  0.03125 0.078125 0  0.046875 0.078125 0  0.0625 0.078125 0  0.078125 0.078125 0  0.09375 0.078125 0  0.109375 0.078125 0  0.125 0.078125 0  0.140625 0.078125 0  0.15625 0.078125 0  0.171875 0.078125 0  0.1875 0.078125 0  0.203125 0.078125 0  0.21875 0.078125 0  0.234375 0.078125 0  0.25 0.078125 0  0.265625 0.078125 0  0.28125 0.078125 0  0.296875 0.078125 0  0.3125 0.078125 0  0.328125 0.078125 0  0.34375 0.078125 0  0.359375 0.078125 0  0.375 0.078125 0  0.390625 0.078125 0  0.40625 0.078125 0  0.421875 0.078125 0  0.4375 0.078125 0  0.453125 0.078125 0  0.46875 0.078125 0  0.484375 0.078125 0  0.5 0.078125 0  0.515625 0.078125 0  0.53125 0.078125 0  0.546875 0.078125 0  0.5625 0.078125 0  0.578125 0.078125 0  0.59375 0.078125 0  0.609375 0.078125 0  0.625 0.078125 0  0.640625 0.078125 0  0.65625 0.078125 0  0.671875 0.078125 0  0.6875 0.078125 0  0.703125 0.078125 0  0.71875 0.078125 0  0.734375 0.078125 0  0.75 0.078125 0  0.765625 0.078125 0  0.78125 0.078125 0  0.796875 0.078125 0  0.8125 0.078125 0  0.828125 0.078125 0  0.84375 0.078125 0  0.859375 0.078125 0  0.875 0.078125 0  0.890625 0.078125 0  0.90625 0.078125 0  0.921875 0.078125 0  0.9375 0.078125 0  0.953125 0.078125 0  0.96875 0.078125 0  0.984375 0.078125 0  1 0.078125 0  0 0.09375 0  0.015625 0.09375 0  0.03125 0.09375 0  0.046875 0.09375 0  0.0625 0.09375 0  0.078125 0.09375 0  0.09375 0.09375 0  0.109375 0.09375 0  0.125 0.09375 0  0.140625 0.09375 0  0.15625 0.09375 0  0.171875 0.09375 0  0.1875 0.09375 0  0.203125 0.09375 0  0.21875 0.09375 0  0.234375 0.09375 0  0.25 0.09375 0  0.265625 0.09375 0  0.28125 0.09375 0  0.296875 0.09375 0  0.3125 0.09375 0  0.328125 0.09375 0  0.34375 0.09375 0  0.359375 0.09375 0  0.375 0.09375 0  0.390625 0.09375 0  0.40625 0.09375 0  0.421875 0.09375 0  0.4375 0.09375 0  0.453125 0.09375 0  0.46875 0.09375 0  0.484375 0.09375 0  0.5 0.09375 0  0.515625 0.09375 0  0.53125 0.09375 0  0.546875 0.09375 0  0.5625 0.09375 0  0.578125 0.09375 0  0.59375 0.09375 0  0.609375 0.09375 0  0.625 0.09375 0  0.640625 0.09375 0  0.65625 0.09375 0  0.671875 0.09375 0  0.6875 0.09375 0  0.703125 0.09375 0  0.71875 0.09375 0  0.734375 0.09375 0  0.75 0.09375 0  0.765625 0.09375 0  0.78125 0.09375 0  0.796875 0.09375 0  0.8125 0.09375 0  0.828125 0.09375 0  0.84375 0.09375 0  0.859375 0.09375 0  0.875 0.09375 0  0.890625 0.09375 0  0.90625 0.09375 0  0.921875 0.09375 0  0.9375 0.09375 0  0.953125 0.09375 0  0.96875 0.09375 0  0.984375 0.09375 0  1 0.09375 0  0 0.109375 0  0.015625 0.109375 0  0.03125 0.109375 0  0.046875 0.109375 0  0.0625 0.109375 0  0.078125 0.109375 0  0.09375 0.109375 0  0.109375 0.109375 0  0.125 0.109375 0  0.140625 0.109375 0  0.15625 0.109375 0  0.171875 0.109375 0  0.1875 0.109375 0  0.203125 0.109375 0  0.21875 0.109375 0  0.234375 0.109375 0  0.25 0.109375 0  0.265625 0.109375 0  0.28125 0.109375 0  0.296875 0.109375 0  0.3125 0.109375 0  0.328125 0.109375 0  0.34375 0.109375 0  0.359375 0.109375 0  0.375 0.109375 0  0.390625 0.109375 0  0.40625 0.109375 0  0.421875 0.109375 0  0.4375 0.109375 0  0.453125 0.109375 0  0.46875 0.109375 0  0.484375 0.109375 0  0.5 0.109375 0  0.515625 0.109375 0  0.53125 0.109375 0  0.546875 0.109375 0  0.5625 0.109375 0  0.578125 0.109375 0  0.59375 0.109375 0  0.609375 0.109375 0  0.625 0.109375 0  0.640625 0.109375 0  0.65625 0.109375 0  0.671875 0.109375 0  0.6875 0.109375 0  0.703125 0.109375 0  0.71875 0.109375 0  0.734375 0.109375 0  0.75 0.109375 0  0.765625 0.109375 0  0.78125 0.109375 0  0.796875 0.109375 0  0.8125 0.109375 0  0.828125 0.109375 0  0.84375 0.109375 0  0.859375 0.109375 0  0.875 0.109375 0  0.890625 0.109375 0  0.90625 0.109375 0  0.921875 0.109375 0  0.9375 0.109375 0  0.953125 0.109375 0  0.96875 0.109375 0  0.984375 0.109375 0  1 0.109375 0  0 0.125 0  0.015625 0.125 0  0.03125 0.125 0  0.046875 0.125 0  0.0625 0.125 0  0.078125 0.125 0  0.09375 0.125 0  0.109375 0.125 0  0.125 0.12
[...]
<PointData  Scalars="f_14444"> 
<DataArray  type="Float64"  Name="f_14444"  format="ascii">3.4291931476161742e-20  3.4344012646920274e-20  3.4445130022317255e-20  3.4451649791034352e-20  3.4236112973175516e-20  3.4098756087803854e-20  3.4586759438934742e-20  3.5323146693656537e-20  3.4581685066582341e-20  3.0588055634343715e-20  1.8803447925099952e-20  -2.4982694520220876e-20  -1.8005188415760509e-19  -6.3107689640836646e-19  -1.7101704944973669e-18  -3.8004401651147935e-18  -6.6995570380530573e-18  -7.6929615004475570e-18  2.4933853226173242e-18  4.5950698060587754e-17  1.6414376257906610e-16  4.2004065868240867e-16  8.8959538017184225e-16  1.6392405620843647e-15  2.6942295656289624e-15  4.0120332822096247e-15  5.4777281435696243e-15  6.9293730284915878e-15  8.2046967339659769e-15  9.1875182973110431e-15  9.8329073256959350e-15  1.0163396004763119e-14  1.0244288495666221e-14  1.0153820664763954e-14  9.9610481732028494e-15  9.7160307168709013e-15  9.4498445435234154e-15  9.1793512329206456e-15  8.9126142772996545e-15  8.6530028911610189e-15  8.4016736098539496e-15  8.1588460117848542e-15  7.9243799769952679e-15  7.6980116170502814e-15  7.4794423759897982e-15  7.2683707361900196e-15  7.0645029333114122e-15  6.8675562860691879e-15  6.6772599689232790e-15  6.4933549051381875e-15  6.3155933644244525e-15  6.1437384712551087e-15  5.9775636973090552e-15  5.8168523682571824e-15  5.6613972229244862e-15  5.5110001294382180e-15  5.3654720936840574e-15  5.2246328136241131e-15  5.0883038363209708e-15  4.9562737441106316e-15  4.8281998124316502e-15  4.7035366208811455e-15  4.5824813208973822e-15  4.4732623135863029e-15  4.4344569549542749e-15  3.4332376655175371e-20  3.4375384317433145e-20  3.4426270276945964e-20  3.4356301314616373e-20  3.4205616943280419e-20  3.4337214050089097e-20  3.4875403426420623e-20  3.5009250848772853e-20  3.3985534535072134e-20  3.3019231519386578e-20  3.4496060121227939e-20  4.4821762425641334e-20  1.1763322926763522e-19  5.3757098389490170e-19  2.4115520765595015e-18  9.3071632947827791e-18  3.1088190617627734e-17  9.1250652056152080e-17  2.3786977841257037e-16  5.5468212568935979e-16  1.1631828841280513e-15  2.2026828576524545e-15  3.7800166657059958e-15  5.8984421044192486e-15  8.3993385041578981e-15  1.0961023789107342e-14  1.3178227162321290e-14  1.4698075087565851e-14  1.5346294217952117e-14  1.5176566974210286e-14  1.4421463330146103e-14  1.3381270980498605e-14  1.2314828019238748e-14  1.1379997577032237e-14  1.0631972272084101e-14  1.0056897233648736e-14  9.6116348443139524e-15  9.2516325210973209e-15  8.9432773177126451e-15  8.6654745029023297e-15  8.4065838099983579e-15  8.1607311041453988e-15  7.9250862830456376e-15  7.6982658506385572e-15  7.4795247013437161e-15  7.2683880724598546e-15  7.0644959806949528e-15  6.8675405651886934e-15  6.6772414145406046e-15  6.4933357856026573e-15  6.3155745373389704e-15  6.1437202484875820e-15  5.9775461798283527e-15  5.8168355783465161e-15  5.6613811542870128e-15  5.5109847275273717e-15  5.3654570550323149e-15  5.2246170186257363e-15  5.0882852330743327e-15  4.9562567903524697e-15  4.8282374343096925e-15  4.7038560931271628e-15  4.5836092565337275e-15  4.4750152625819023e-15  4.4276068961667047e-15  3.4459615532532527e-20  3.4409069507534150e-20  3.4282040215486556e-20  3.4193640288073214e-20  3.4537105322810429e-20  3.5135634413002813e-20  3.4718171905825643e-20  3.3424151970972851e-20  3.7303108892698226e-20  6.3814772144949117e-20  1.8229996404797228e-19  7.3177413327831842e-19  3.1417157525921157e-18  1.2594276123083807e-17  4.5757798601885755e-17  1.5035058381138988e-16  4.4703151979041505e-16  1.2030345113024174e-15  2.9313561318917483e-15  6.4702024607014579e-15  1.2943629636088469e-14  2.3481156090979538e-14  3.8651223358154052e-14  5.7767527129516433e-14  7.8459372026971874e-14  9.6942139816292465e-14  1.0912135506645057e-13  1.1212526958965237e-13  1.0547610314217698e-13  9.1236812993985621e-14  7.3071749411505207e-14  5.4791667531595841e-14  3.9156484257385929e-14  2.7404823810784235e-14  1.9479956666508785e-14  1.4598201894836619e-14  1.1791987484171490e-14  1.0238270914671975e-14  9.3677848372600700e-15  8.8408382300215129e-15  8.4768465551495597e-15  8.1883015750727565e-15  7.9357680947169531e-15  7.7023748060875651e-15  7.4810962986325111e-15  7.2689824654983704e-15  7.0647136749841231e-15  6.8676127957735656e-15  6.6772575086734866e-15  6.4933304058130995e-15  6.3155611961320211e-15  6.1437042316804749e-15  5.9775295557254357e-15  5.8168191513127362e-15  5.6613652276950652e-15  5.5109693690928397e-15  5.3654420532491740e-15  5.2246015670970544e-15  5.0882683542621820e-15  4.9562446611942039e-15  4.8282763416090312e-15  4.7041068218014952e-15  4.5843325757850314e-15  4.4758834834756350e-15  4.4265231711264928e-15  3.4415185939697918e-20  3.4220611674720699e-20  3.4109261010808846e-20  3.4747332284047998e-20  3.5720881491666995e-20  3.4594429261957164e-20  3.1631978122536258e-20  3.9173519254709705e-20  9.4255128513140789e-20  3.5452085770355216e-19  1.6660869314729824e-18  7.9582442839405788e-18  3.4984282728694428e-17  1.3905207531523607e-16  5.0020757878536684e-16  1.6300352729649527e-15  4.8119140814365786e-15  1.2868189396510023e-14  3.1180074575624632e-14  6.8471448961162644e-14  1.3631261861033297e-13  2.4608860952475818e-13  4.0302663029315814e-13  5.9903491321588497e-13  8.0849259435874778e-13  9.9148505414154128e-13  1.1056832918820845e-12  1.1224028539746079e-12  1.0384945813908368e-12  8.7728282202230337e-13  6.7821073692503750e-13  4.8140882255221171e-13  3.1531493933890350e-13  1.9209583845240579e-13  1.1034373422183314e-13  6.1218608141610833e-14  3.4178450124303988e-14  2.0375575545358122e-14  1.3735073525051033e-14  1.0648340811711664e-14  9.2027979266531668e-15  8.4739938660429802e-15  8.0468662141204529e-15  7.7453449013692105e-15  7.4976987201417526e-15  7.2754044027258843e-15  7.0672000145097515e-15  6.8685726767292918e-15  6.6776228697970262e-15  6.4934632815187858e-15  6.3156029300020027e-15  6.1437103001787217e-15  5.9775218490909954e-15  5.8168063494910678e-15  5.6613507811771898e-15  5.5109546128160008e-15  5.3654273327339826e-15  5.2245865398465403e-15  5.0882529082397942e-15  4.9562354175576238e-15  4.8283102192020472e-15  4.7042917452909795e-15  4.5848117804124702e-15  4.4765043377446475e-15  4.4267255669936527e-15  3.3699605417961066e-20  3.3944905668324773e-20  3.4958800743787502e-20  3.6297798476720751e-20  3.4247548045221726e-20  2.8970467631480407e-20  4.0309001662783806e-20  1.2905225003313253e-19  5.7007516193604546e-19  3.0121855351456779e-18  1.5993913357453153e-17  7.7656847451272310e-17  3.4020382203686512e-16  1.3484507298915422e-15  4.8416898139097264e-15  1.5747023927091227e-14  4.6389261415254057e-14  1.2379810725037981e-13  2.9934855051453472e-13  6.5599681462968737e-13  1.3031448936117611e-12  2.3473285295505304e-12  3.8352515563990986e-12  5.6863218300765033e-12  7.6542498633312175e-12  9.3598798927498934e-12  1.0405344379923803e-11  1.0525882868198786e-11  9.6999575204948561e-12  8.1546848705331259e-12  6.2653934949711375e-12  4.4094539329374577e-12  2.8510182997304295e-12  1.7001784591380448e-12  9.4016938287129325e-13  4.8588876725443075e-13  2.3759801509819261e-13  1.1227771571742338e-13  5.3243123578473571e-14  2.6967751194752155e-14  1.5745656900011140e-14  1.1044819872612174e-14  9.0451965058818575e-15  8.1310263992583498e-15  7.6466084807560057e-15  7.3330246064493956e-15  7.0895774666590534e-15  6.8772984098619882e-15  6.6810366416521958e-15  6.4947997171541249e-15  6.3161227439719068e-15  6.1439074831113949e-15  5.9775910493939465e-15  5.8168247094596505e-15  5.6613490490145358e-15  5.5109450804212638e-15  5.3654148156722338e-15  5.2245727006373995e-15  5.0882388569707325e-15  4.9562276003799274e-15  4.8283367908790510e-15  4.7044253853485573e-15  4.5851440800089033e-15  4.4769922387204264e-15  4.4271661729578391e-15  3.3597790034735025e-20  3.4997267317799055e-20  3.6634316570936422e-20  3.3472216455665707e-20  2.5599338088360976e-20  4.0533019240909025e-20  1.6040661281335472e-19  7.7022332011768419e-19  4.4759384847701480e-18  2.6366791244403536e-17  1.4146867865675990e-16  6.8347599225868178e-16  2.9867502852128601e-15  1.1822839416263819e-14  4.2386434630132367e-14  1.3761629041790486e-13  4.0466932130654814e-13  1.0779398362924737e-12  2.6015418444526357e-12  5.6897709542536491e-12  1.1279448527790867e-11  2.0273665901731843e-11  3.3050276536389116e-11  4.8887034919000425e-11  6.5645260787203702e-11  8.0069477068089207e-11  8.8778333364649936e-11  8.9561328162174552e-11  8.2299785662238357e-11  6.8984445442207063e-11  5.2836949610161389e-11  3.7060293512639130e-11  2.3870292230287252e-11  1.4167307542835152e-11  7.7821137355292539e-12  3.9783574329080282e-12  1.9063970588292620e-12  8.6444341531007981e-13  3.7586743424734370e-13  1.5994723256446790e-13  6.8951161362050891e-14  3.1909090913448131e-14  1.7131877409370688e-14  1.1249250004223836e-14  8.8483220166305138e-15  7.7972068263367446e-15  7.2695742302211488e-15  6.9474253647563361e-15  6.7084965898433226e-15  6.5056063950319854e-15  6.3203943693815119e-15  6.1456002059401363e-15  5.9782602403474871e-15  5.8170853917011463e-15  5.6614458668488735e-15  5.5109759178737605e-15  5.3654190036388991e-15  5.2245660238423312e-15  5.0882283898809646e-15  4.9562212475943392e-15  4.8283565101267811e-15  4.7045216186178036e-15  4.5853821478537012e-15  4.4773764475827527e-15  4.4275920155595890e-15  3.7457874782563278e-20  3.7224362346425464e-20  3.2533333094225863e-20  2.2395801692514615e-20  3.9982120816986566e-20  1.7816575184669257e-19  8.7005192091665711e-19  5.4673832597819430e-18  3.5743671886486506e-17  2.1203417679249213e-16  1.1297660591921131e-15  5.4434525183015281e-15  2.3758528497542762e-14  9.3907448723933241e-14  3.3608148868833206e-13  1.0891684385488687e-12  3.1968225078094517e-12  8.4992367890861033e-12  2.0471470481047997e-11  4.4679591482279395e-11  8.8381521201286998e-11  1.5849945761630041e-10  2.5778360117729057e-10  3.8038435753327412e-10  5.0950432975651081e-10  6.1986621787059129e-10  6.8548953385045911e-10  6.8970012473203520e-10  6.3208459958123916e-10  5.2840082175478104e-10  4.0363875712367745e-10  2.8237068479397638e-10  1.8139990366724983e-10  1.0738289817872982e-10  5.8826207420536639e-11  2.9981072015486057e-11  1.4308477440359906e-11  6.4452464066484288e-12  2.7662116064191355e-12  1.1439772638121128e-12  4.6223521345590516e-13  1.8598117543212922e-13  7.6791814770273634e-14  3.4232359461764086e-14  1.7696825475188589e-14  1.1211424829301357e-14  8.5919846933936658e-15  7.4620207837402668e-15  6.9097725496047884e-15  6.5847583542824494e-15  6.3516937680291965e-15  6.1580452330448367e-15  5.9832336005251346e-15  5.8190802085923777e-15  5.6622460725066189e-15  5.5112940571065321e-15  5.3655414432713318e-15  5.2246085156289751e-15  5.0882388246399002e-15  4.9562231772405087e-15  4.8283734700817506e-15  4.7045920945368935e-15  4.5855563892880556e-15  4.4776751318378652e-15  4.4279476169234158e-15  4.0484057246693921e-20  3.3120003774156219e-20  2.1046504374631105e-20  3.9630858213444659e-20  1.7766613653779038e-19  8.2144194290897007e-19  5.4758463888404868e-18  3.9840449694390475e-17  2.6158186128468721e-16  1.5370772674955445e-15  8.1655059577244719e-15  3.9299471547815975e-14  1.7127467317463807e-13  6.7576513196762782e-13  2.4139655316483062e-12  7.8083579046481497e-12  2.2873648682097130e-11  6.0689637059150383e-11  1.4586972934505198e-10  3.1766619513767683e-10  6.2695067415751200e-10  1.1216955650944425e-09  1.8198902035364129e-09  2.6787140012224540e-09  3.5788366841600411e-09  4.3427592362765192e-09  4.7899883105378556e-09  4.8068659232905853e-09  4.3939884306591772e-09  3.6640048236238561e-09  2.7921256083566672e-09  1.9487949539468007e-09  1.2492715376728808e-09  7.3808998634484184e-10  4.0363499322968279e-10  2.0539815263496656e-10  9.7889539885456607e-11  4.4030605478860488e-11  1.8859357398451515e-11  7.7690062688533615e-12  3.1107522619042768e-12  1.2240376039083001e-12  4.7897318273598741e-13  1.8925304181443780e-13  7.7408153995832125e-14  3.4258917793577817e-14  1.7520292182486668e-14  1.0936247221298071e-14  8.2683825602372767e-15  7.1188451208571780e-15  6.5628053434870562e-15  6.2419682490223831e-15  6.0167902974508556e-15  5.8325763350230376e-15  5.6677041239258975e-15  5.5135112451041388e-15  5.3664436297096698e-15  5.2249735307644823e-15  5.0883839221131092e-15  4.9562808379184943e-15  4.8284091739033146e-15  4.7046526269390287e-15  4.5856890846861169e-15  4.4779058625012967e-15  4.4282302563454217e-15  2.4555771125456747e-20  2.0236643427376930e-20  3.9969367949771856e-20  1.6198882447689486e-19  6.5167378421115803e-19  4.4778009714763994e-18  3.6491873523084929e-17  2.6571674025341752e-16  1.7217260189847540e-15  1.0083489440198478e-14  5.3518005951948407e-14  2.5720290956314256e-13  1.1188798321396409e-12  4.4061240665536032e-12  1.5709164453356674e-11  5.0712710255707266e-11  1.4824922422181323e-10  3.9249599646879911e-10  9.4127027847253470e-10  2.0450983139807749e-09  4.0265906271932289e-09  7.1863726054125234e-09  1.1630136728338311e-08  1.7074636812428735e-08  2.2753127728027590e-08  2.7538319612659974e-08  3.0296222553671133e-08  3.0326444298944978e-08  2.7654238997948034e-08  2.3006792125029374e-08  1.7494568906568934e-08  1.2186858136937197e-08  7.7991560189707133e-09  4.6014254989015878e-09  2.5136839283280416e-09  1.2782664290773907e-09  6.0903335018923757e-10  2.7397847600223348e-10  1.1740703818894064e-10  4.8394304542172440e-11  1.9380973084170705e-11  7.6143709146405182e-12  2.9604249496638695e-12  1.1479095500538280e-12  4.4747157298124220e-13  1.7738187728503656e-13  7.3062027954026898e-14  3.2581409908067056e-14  1.6743265784013139e-14  1.0453655462212209e-14  7.8819163695113882e-15  6.7666121229979603e-15  6.2266442976238647e-15  5.9170124489489949e-15  5.7018837401837214e-15  5.5274316717073140e-15  5.3721465877692301e-15  5.2273213920845070e-15  5.0893544310161031e-15  4.9566831178072887e-15  4.8285875079757556e-15  4.7047595855795560e-15  4.5858157979526125e-15  4.4780916034141189e-15  4.4284549541059132e-15  7.0881643595444511e-22  3.2967624798021594e-20  1.3559673465336301e-19  4.3934422063338709e-19  2.9646401801440923e-18  2.7437746406947181e-17  2.2236553061261332e-16  1.5883630213961127e-15  1.0253204533756240e-14  6.0014074414699949e-14  3.1808196876363633e-13  1.5257780332318394e-12  6.6243966656445530e-12  2.6035261007240951e-11  9.2634866647834568e-11  2.9841314102296473e-10  8.7043546461999230e-10  2.2992559182166141e-09  5.5009854539020577e-09  1.1922912797937831e-08  2.3416341952769323e-08  4.1685148880290525e-08  6.7286859647879676e-08  9.8528841493609814e-08  1.3095522427763619e-07  1.5809018216659614e-07  1.7348899697415026e-07  1.7324755939690945e-07  1.5762788579459141e-07  1.3086853187680713e-07  9.9332677710254239e-08  6.9089715443123014e-08  4.4161886608775575e-08  2.6033981985839493e-08  1.4216822572035314e-08  7.2306683044563591e-09  3.4475353460393422e-09  1.5529483370704618e-09  6.6676348032284247e-10  2.7551694892526678e-10  1.1065636739558647e-10  4.3602269558440994e-11  1.6992044429250546e-11  6.5910468572231100e-12  2.5570437116020614e-12  9.9633685192174269e-13  3.9197769301940630e-13  1.5725749309140227e-13  6.5696060023617324e-14  2.9764061982634305e-14  1.5536730187409103e-14  9.8166871356653824e-15  7.4485052695248550e-15  6.4092462576475525e-15  5.9013461904036477e-15  5.6087494228503300e-15  5.4055067379231867e-15  5.2410929587512486e-15  5.0950776226358892e-15  4.9590729483858318e-15  4.8296058834342389e-15  4.7052078394483095e-15  4.5860764841157804e-15  4.4782934142866148e-15  4.4286633368518382e-15  4.7014458151512054e-20  1.0630935998665712e-19  2.5580701260485189e-19  1.5580608104260044e-18  1.6896493226277674e-17  1.5343720912708192e-16  1.2074766305903078e-15  8.5872794846400549e-15  5.5432355870768859e-14  3.2404134248320310e-13  1.7140831188422152e-12  8.2054774450598351e-12  3.5553351278104802e-11  1.3944134151220172e-10  4.9506371242742151e-10  1.5911962083392876e-09  4.6304812043733133e-09  1.2201883022228189e-08  2.9120478524532877e-08  6.2955151397667743e-08  1.2332105280592435e-07  2.1895506858502594e-07  3.5249686302640786e-07  5.1481019669151914e-07  6.8247414061746831e-07  8.2183367811671923e-07  8.9974512944024787e-07  8.9650828098445534e-07  8.1404869746687799e-07  6.7467405126768737e-07  5.1135897696671895e-07  3.5528735857525978e-07  2.2695026990181025e-07  1.3376846247799363e-07  7.3078700554640826e-08  3.7206608965099015e-08  1.7771066154059506e-08  8.0252535772946189e-09  3.4571072171501431e-09  1.4343448312465999e-09  5.7878752456583002e-10  2.2923067924753013e-10  8.9801511206293962e-11  3.5005458348523819e-11  1.3634175731675118e-11  5.3206203160405622e-12  2.0847438094101258e-12  8.2222888170659015e-13  3.2795106395090598e-13  1.3363467878433179e-13  5.6862586038565830e-14  2.6336971086097116e-14  1.4085715664139902e-14  9.0898538003520419e-15  6.9899477931029784e-15  6.0533821678423007e-15  5.5882079286525748e-15  5.3166313744145669e-15  5.1265189934615024e-15  4.9722315152420837e-15  4.8351845208113858e-15  4.7075604868655600e-15  4.5871759247640916e-15  4.4787842252785285e-15  4.4290249141033991e-15  1.6495887798815377e-19  1.6040541059644550e-19  6.2326835688423987e-19  8.4808814175890123e-18  8.7435444967320750e-17  7.5700812130844394e-16  5.9258848832945694e-15  4.2186411548672504e-14  2.7202509827162656e-13  1.5869032878952551e-12  8.3765831212209983e-12  4.0016368426521277e-11  1.7301624128211513e-10  6.7706306583669871e-10  2.3982271531361389e-09  7.6896823417260566e-09  2.2321949058736646e-08  5.8670884220444175e-08  1.3965516531089829e-07  3.0111472883790185e-07  5.8825852208816770e-07  1.0416330208875125e-06  1.6724551762395895e-06  2.4361881753027716e-06  3.2214788980016427e-06  3.8700527543541512e-06  4.2275972339773367e-06  4.2040400364079479e-06  3.8108324598105933e-06  3.1539993284986122e-06  2.3881272497571794e-06  1.6583208272669724e-06  1.0592554646914372e-06  6.2468862725450583e-07  3.4169414156149795e-07  1.7431753982031293e-07  8.3499662437545170e-08  3.7851720629106025e-08  1.6383651888034872e-08  6.8362345724146444e-09  2.7764072772603491e-09  1.1073274204818342e-09  4.3696219828592764e-10  1.7156992102300354e-10  6.7287586248369946e-11  2.6421727749040117e-11  1.0402850311947517e-11  4.1112615645807333e-12  1.6329962156723447e-12  6.5343016270033701e-13  2.6473917540013112e-13  1.0983103935007502e-13  4.7775077525295051e-14  2.2749144621101686e-14  1.2556344677190192e-14  8.3339577093940648e-15  6.5278347615535371e-15  5.7060436055549763e-15  5.2889241295833718e-15  5.0403425055380541e-15  4.8640524616922946e-15  4.7197080559049780e-15  4.5926311129917254e-15  4.4809088251387692e-15  4.4303531291165083e-15  8.6091354418861882e-20  1.7957659253956479e-19  3.4415091228810566e-18  4.1277257134785519e-17  3.9192930729130553e-16  3.3708478123794438e-15  2.6463483628747785e-14  1.8825651529221743e-13  1.2112442019754351e-12  7.0503748385108563e-12  3.7136552486999975e-11  1.7701889347766858e-10  7.6360841154392906e-10  2.9810734463279970e-09  1.0533098298586935e-08  3.3686940106277194e-08  9.7530528323058905e-08  2.5565794769460245e-07  6.0687883250534403e-07  1.3048923095327940e-06  2.5421963669251986e-06  4.4891836177938252e-06  7.1886511379050856e-06  1.0444538554340780e-05  1.3777885920951334e-05  1.6514891849833444e-05  1.8004747546028533e-05  1.7873897949240832e-05  1.6179997140061502e-05  1.3378214032935302e-05  1.0124442927843210e-05  7.0305542313458763e-06  4.4936049160643924e-06  2.6536126528520491e-06  1.4545990503216781e-06  7.4435263611889055e-07  3.5801356676709287e-07  1.6313837426993079e-07  7.1059885963909566e-08  2.9869842351431969e-08  1.2231685387709066e-08  4.9219440029221103e-09  1.9601777399611176e-09  7.7675402063927129e-10  3.0736645482638231e-10  1.2172028537734607e-10  4.8300450935183044e-11  1.9220077203710938e-11  7.6743090712818810e-12  3.0769