<?xml version="1.0"?>
<VTKFile type="UnstructuredGrid"  version="0.1"  >
<UnstructuredGrid>
<Piece  NumberOfPoints="4225" NumberOfCells="8192">
<Points>
<DataArray  type="Float64"  NumberOfComponents="3"  format="ascii">0 0 0  0.015625 0 0  0.03125 0 0  0.046875 0 0  0.0625 0 0  0.078125 0 0  0.09375 0 0  0.109375 0 0  0.125 0 0  0.140625 0 0  0.15625 0 0  0.171875 0 0  0.1875 0 0  0.203125 0 0  0.21875 0 0  0.234375 0 0  0.25 0 0  0.265625 0 0  0.28125 0 0  0.296875 0 0  0.3125 0 0  0.328125 0 0  0.34375 0 0  0.359375 0 0  0.375 0 0  0.390625 0 0  0.40625 0 0  0.421875 0 0  0.4375 0 0  0.453125 0 0  0.46875 0 0  0.484375 0 0  0.5 0 0  0.515625 0 0  0.53125 0 0  0.546875 0 0  0.5625 0 0  0.578125 0 0  0.59375 0 0  0.609375 0 0  0.625 0 0  0.640625 0 0  0.65625 0 0  0.671875 0 0  0.6875 0 0  0.703125 0 0  0.71875 0 0  0.734375 0 0  0.75 0 0  0.765625 0 0  0.78125 0 0  0.796875 0 0  0.8125 0 0  0.828125 0 0  0.84375 0 0  0.859375 0 0  0.875 0 0  0.890625 0 0  0.90625 0 0  0.921875 0 0  0.9375 0 0  0.953125 0 0  0.96875 0 0  0.984375 0 0  1 0 0  0 0.015625 0  0.015625 0.015625 0  0.03125 0.015625 0  0.046875 0.015625 0  0.0625 0.015625 0  0.078125 0.015625 0  0.09375 0.015625 0  0.109375 0.015625 0  0.125 0.015625 0  0.140625 0.015625 0  0.15625 0.015625 0  0.171875 0.015625 0  0.1875 0.015625 0  0.203125 0.015625 0  0.21875 0.015625 0  0.234375 0.015625 0  0.25 0.015625 0  0.265625 0.015625 0  0.28125 0.015625 0  0.296875 0.015625 0  0.3125 0.015625 0  0.328125 0.015625 0  0.34375 0.015625 0  0.359375 0.015625 0  0.375 0.015625 0  0.390625 0.015625 0  0.40625 0.015625 0  0.421875 0.015625 0  0.4375 0.015625 0  0.453125 0.015625 0  0.46875 0.015625 0  0.484375 0.015625 0  0.5 0.015625 0  0.515625 0.015625 0  0.53125 0.015625 0  0.546875 0.015625 0  0.5625 0.015625 0  0.578125 0.015625 0  0.59375 0.015625 0  0.609375 0.015625 0  0.625 0.015625 0  0.640625 0.015625 0  0.65625 0.015625 0  0.671875 0.015625 0  0.6875 0.015625 0  0.703125 0.015625 0  0.71875 0.015625 0  0.734375 0.015625 0  0.75 0.015625 0  0.765625 0.015625 0  0.78125 0.015625 0  0.796875 0.015625 0  0.8125 0.015625 0  0.828125 0.015625 0  0.84375 0.015625 0  0.859375 0.015625 0  0.875 0.015625 0  0.890625 0.015625 0  0.90625 0.015625 0  0.921875 0.015625 0  0.9375 0.015625 0  0.953125 0.015625 0  0.96875 0.015625 0  0.984375 0.015625 0  1 0.015625 0  0 0.03125 0  0.015625 0.03125 0  0.03125 0.03125 0  0.046875 0.03125 0  0.0625 0.03125 0  0.078125 0.03125 0  0.09375 0.03125 0  0.109375 0.03125 0  0.125 0.03125 0  0.140625 0.03125 0  0.15625 0.03125 0  0.171875 0.03125 0  0.1875 0.03125 0  0.203125 0.03125 0  0.21875 0.03125 0  0.234375 0.03125 0  0.25 0.03125 0  0.265625 0.03125 0  0.28125 0.03125 0  0.296875 0.03125 0  0.3125 0.03125 0  0.328125 0.03125 0  0.34375 0.03125 0  0.359375 0.03125 0  0.375 0.03125 0  0.390625 0.03125 0  0.40625 0.03125 0  0.421875 0.03125 0  0.4375 0.03125 0  0.453125 0.03125 0  0.46875 0.03125 0  0.484375 0.03125 0  0.5 0.03125 0  0.515625 0.03125 0  0.53125 0.03125 0  0.546875 0.03125 0  0.5625 0.03125 0  0.578125 0.03125 0  0.59375 0.03125 0  0.609375 0.03125 0  0.625 0.03125 0  0.640625 0.03125 0  0.65625 0.03125 0  0.671875 0.03125 0  0.6875 0.03125 0  0.703125 0.03125 0  0.71875 0.03125 0  0.734375 0.03125 0  0.75 0.03125 0  0.765625 0.03125 0  0.78125 0.03125 0  0.796875 0.03125 0  0.8125 0.03125 0  0.828125 0.03125 0  0.84375 0.03125 0  0.859375 0.03125 0  0.875 0.03125 0  0.890625 0.03125 0  0.90625 0.03125 0  0.921875 0.03125 0  0.9375 0.03125 0  0.953125 0.03125 0  0.96875 0.03125 0  0.984375 0.03125 0  1 0.03125 0  0 0.046875 0  0.015625 0.046875 0  0.03125 0.046875 0  0.046875 0.046875 0  0.0625 0.046875 0  0.078125 0.046875 0  0.09375 0.046875 0  0.109375 0.046875 0  0.125 0.046875 0  0.140625 0.046875 0  0.15625 0.046875 0  0.171875 0.046875 0  0.1875 0.046875 0  0.203125 0.046875 0  0.21875 0.046875 0  0.234375 0.046875 0  0.25 0.046875 0  0.265625 0.046875 0  0.28125 0.046875 0  0.296875 0.046875 0  0.3125 0.046875 0  0.328125 0.046875 0  0.34375 0.046875 0  0.359375 0.046875 0  0.375 0.046875 0  0.390625 0.046875 0  0.40625 0.046875 0  0.421875 0.046875 0  0.4375 0.046875 0  0.453125 0.046875 0  0.46875 0.046875 0  0.484375 0.046875 0  0.5 0.046875 0  0.515625 0.046875 0  0.53125 0.046875 0  0.546875 0.046875 0  0.5625 0.046875 0  0.578125 0.046875 0  0.59375 0.046875 0  0.609375 0.046875 0  0.625 0.046875 0  0.640625 0.046875 0  0.65625 0.046875 0  0.671875 0.046875 0  0.6875 0.046875 0  0.703125 0.046875 0  0.71875 0.046875 0  0.734375 0.046875 0  0.75 0.046875 0  0.765625 0.046875 0  0.78125 0.046875 0  0.796875 0.046875 0  0.8125 0.046875 0  0.828125 0.046875 0  0.84375 0.046875 0  0.859375 0.046875 0  0.875 0.046875 0  0.890625 0.046875 0  0.90625 0.046875 0  0.921875 0.046875 0  0.9375 0.046875 0  0.953125 0.046875 0  0.96875 0.046875 0  0.984375 0.046875 0  1 0.046875 0  0 0.0625 0  0.015625 0.0625 0  0.03125 0.0625 0  0.046875 0.0625 0  0.0625 0.0625 0  0.078125 0.0625 0  0.09375 0.0625 0  0.109375 0.0625 0  0.125 0.0625 0  0.140625 0.0625 0  0.15625 0.0625 0  0.171875 0.0625 0  0.1875 0.0625 0  0.203125 0.0625 0  0.21875 0.0625 0  0.234375 0.0625 0  0.25 0.0625 0  0.265625 0.0625 0  0.28125 0.0625 0  0.296875 0.0625 0  0.3125 0.0625 0  0.328125 0.0625 0  0.34375 0.0625 0  0.359375 0.0625 0  0.375 0.0625 0  0.390625 0.0625 0  0.40625 0.0625 0  0.421875 0.0625 0  0.4375 0.0625 0  0.453125 0.0625 0  0.46875 0.0625 0  0.484375 0.0625 0  0.5 0.0625 0  0.515625 0.0625 0  0.53125 0.0625 0  0.546875 0.0625 0  0.5625 0.0625 0  0.578125 0.0625 0  0.59375 0.0625 0  0.609375 0.0625 0  0.625 0.0625 0  0.640625 0.0625 0  0.65625 0.0625 0  0.671875 0.0625 0  0.6875 0.0625 0  0.703125 0.0625 0  0.71875 0.0625 0  0.734375 0.0625 0  0.75 0.0625 0  0.765625 0.0625 0  0.78125 0.0625 0  0.796875 0.0625 0  0.8125 0.0625 0  0.828125 0.0625 0  0.84375 0.0625 0  0.859375 0.0625 0  0.875 0.0625 0  0.890625 0.0625 0  0.90625 0.0625 0  0.921875 0.0625 0  0.9375 0.0625 0  0.953125 0.0625 0  0.96875 0.0625 0  0.984375 0.0625 0  1 0.0625 0  0 0.078125 0  0.015625 0.078125 0  0.03125 0.078125 0  0.046875 0.078125 0  0.0625 0.078125 0  0.078125 0.078125 0  0.09375 0.078125 0  0.109375 0.078125 0  0.125 0.078125 0  0.140625 0.078125 0  0.15625 0.078125 0  0.171875 0.078125 0  0.1875 0.078125 0  0.203125 0.078125 0  0.21875 0.078125 0  0.234375 0.078125 0  0.25 0.078125 0  0.265625 0.078125 0  0.28125 0.078125 0  0.296875 0.078125 0  0.3125 0.078125 0  0.328125 0.078125 0  0.34375 0.078125 0  0.359375 0.078125 0  0.375 0.078125 0  0.390625 0.078125 0  0.40625 0.078125 0  0.421875 0.078125 0  0.4375 0.078125 0  0.453125 0.078125 0  0.46875 0.078125 0  0.484375 0.078125 0  0.5 0.078125 0  0.515625 0.078125 0  0.53125 0.078125 0  0.546875 0.078125 0  0.5625 0.078125 0  0.578125 0.078125 0  0.59375 0.078125 0  0.609375 0.078125 0  0.625 0.078125 0  0.640625 0.078125 0  0.65625 0.078125 0  0.671875 0.078125 0  0.6875 0.078125 0  0.703125 0.078125 0  0.71875 0.078125 0  0.734375 0.078125 0  0.75 0.078125 0  0.765625 0.078125 0  0.78125 0.078125 0  0.796875 0.078125 0  0.8125 0.078125 0  0.828125 0.078125 0  0.84375 0.078125 0  0.859375 0.078125 0  0.875 0.078125 0  0.890625 0.078125 0  0.90625 0.078125 0  0.921875 0.078125 0  0.9375 0.078125 0  0.953125 0.078125 0  0.96875 0.078125 0  0.984375 0.078125 0  1 0.078125 0  0 0.09375 0  0.015625 0.09375 0  0.03125 0.09375 0  0.046875 0.09375 0  0.0625 0.09375 0  0.078125 0.09375 0  0.09375 0.09375 0  0.109375 0.09375 0  0.125 0.09375 0  0.140625 0.09375 0  0.15625 0.09375 0  0.171875 0.09375 0  0.1875 0.09375 0  0.203125 0.09375 0  0.21875 0.09375 0  0.234375 0.09375 0  0.25 0.09375 0  0.265625 0.09375 0  0.28125 0.09375 0  0.296875 0.09375 0  0.3125 0.09375 0  0.328125 0.09375 0  0.34375 0.09375 0  0.359375 0.09375 0  0.375 0.09375 0  0.390625 0.09375 0  0.40625 0.09375 0  0.421875 0.09375 0  0.4375 0.09375 0  0.453125 0.09375 0  0.46875 0.09375 0  0.484375 0.09375 0  0.5 0.09375 0  0.515625 0.09375 0  0.53125 0.09375 0  0.546875 0.09375 0  0.5625 0.09375 0  0.578125 0.09375 0  0.59375 0.09375 0  0.609375 0.09375 0  0.625 0.09375 0  0.640625 0.09375 0  0.65625 0.09375 0  0.671875 0.09375 0  0.6875 0.09375 0  0.703125 0.09375 0  0.71875 0.09375 0  0.734375 0.09375 0  0.75 0.09375 0  0.765625 0.09375 0  0.78125 0.09375 0  0.796875 0.09375 0  0.8125 0.09375 0  0.828125 0.09375 0  0.84375 0.09375 0  0.859375 0.09375 0  0.875 0.09375 0  0.890625 0.09375 0  0.90625 0.09375 0  0.921875 0.09375 0  0.9375 0.09375 0  0.953125 0.09375 0  0.96875 0.09375 0  0.984375 0.09375 0  1 0.09375 0  0 0.109375 0  0.015625 0.109375 0  0.03125 0.109375 0  0.046875 0.109375 0  0.0625 0.109375 0  0.078125 0.109375 0  0.09375 0.109375 0  0.109375 0.109375 0  0.125 0.109375 0  0.140625 0.109375 0  0.15625 0.109375 0  0.171875 0.109375 0  0.1875 0.109375 0  0.203125 0.109375 0  0.21875 0.109375 0  0.234375 0.109375 0  0.25 0.109375 0  0.265625 0.109375 0  0.28125 0.109375 0  0.296875 0.109375 0  0.3125 0.109375 0  0.328125 0.109375 0  0.34375 0.109375 0  0.359375 0.109375 0  0.375 0.109375 0  0.390625 0.109375 0  0.40625 0.109375 0  0.421875 0.109375 0  0.4375 0.109375 0  0.453125 0.109375 0  0.46875 0.109375 0  0.484375 0.109375 0  0.5 0.109375 0  0.515625 0.109375 0  0.53125 0.109375 0  0.546875 0.109375 0  0.5625 0.109375 0  0.578125 0.109375 0  0.59375 0.109375 0  0.609375 0.109375 0  0.625 0.109375 0  0.640625 0.109375 0  0.65625 0.109375 0  0.671875 0.109375 0  0.6875 0.109375 0  0.703125 0.109375 0  0.71875 0.109375 0  0.734375 0.109375 0  0.75 0.109375 0  0.765625 0.109375 0  0.78125 0.109375 0  0.796875 0.109375 0  0.8125 0.109375 0  0.828125 0.109375 0  0.84375 0.109375 0  0.859375 0.109375 0  0.875 0.109375 0  0.890625 0.109375 0  0.90625 0.109375 0  0.921875 0.109375 0  0.9375 0.109375 0  0.953125 0.109375 0  0.96875 0.109375 0  0.984375 0.109375 0  1 0.109375 0  0 0.125 0  0.015625 0.125 0  0.03125 0.125 0  0.046875 0.125 0  0.0625 0.125 0  0.078125 0.125 0  0.09375 0.125 0  0.109375 0.125 0  0.125 0.12
[...]
<PointData  Scalars="f_14444"> 
<DataArray  type="Float64"  Name="f_14444"  format="ascii">3.4312552653597688e-15  3.4367284122053826e-15  3.4387929550356501e-15  3.4395339800834301e-15  3.4397139139010360e-15  3.4396365019913171e-15  3.4394333706966270e-15  3.4391678332221511e-15  3.4389047649693609e-15  3.4386812527173157e-15  3.4380439036806884e-15  3.4365747244488632e-15  3.4403226470467968e-15  3.4603277955388689e-15  3.4390251692034208e-15  3.1861412529643759e-15  3.0510083999521021e-15  5.6385375407217659e-15  1.2981513505097169e-14  7.1204561527107931e-15  -6.6165239401527224e-14  -1.7778608695572064e-13  2.2786084870619737e-13  2.6481767381490850e-12  7.9053411658476938e-12  9.1934390207626444e-12  -1.7438528570545931e-11  -9.3119186180818043e-11  -7.7957533790905317e-11  8.8435706156182140e-10  5.8182400579181690e-09  2.3087534825889964e-08  7.2483217387405018e-08  1.9578403390761350e-07  4.7361317953418854e-07  1.0505073170331593e-06  2.1699709153940224e-06  4.2208766812567934e-06  7.7958973623398607e-06  1.3761758843593332e-05  2.3340063876097445e-05  3.8196344880036643e-05  6.0533965353060684e-05  9.3188599709664662e-05  1.3971836258875226e-04  2.0448428968275383e-04  2.9271582521018212e-04  4.1055625108697751e-04  5.6508358014834221e-04  7.6430328650946115e-04  1.0171103148263528e-03  1.3332189893827920e-03  1.7230607903630085e-03  2.1976511390377766e-03  2.7684270074315839e-03  3.4470651228839040e-03  4.2452430392169857e-03  5.1745866781571425e-03  6.2455978349968263e-03  7.4712717245657700e-03  8.8502129969853151e-03  1.0434640763777602e-02  1.2063917349110324e-02  1.4344340734503821e-02  1.5683397989696590e-02  3.4916229599918073e-15  3.4899101750591416e-15  3.4893524770511115e-15  3.4890552944380167e-15  3.4887875849249652e-15  3.4885027936341103e-15  3.4882007292658557e-15  3.4878971017390729e-15  3.4876197696728772e-15  3.4872772063336023e-15  3.4865842716059721e-15  3.4871104389332588e-15  3.4950612264143986e-15  3.4993399088876243e-15  3.4253095081665332e-15  3.3666188183094238e-15  4.5550793503864953e-15  9.0754423869365685e-15  1.1513102754375200e-14  -1.0970656578336041e-14  -3.3796269450679752e-14  3.0435214259024122e-13  2.1068302284501117e-12  6.6338417290104819e-12  1.1954527025372874e-11  1.0661699136562804e-11  1.8932886405811443e-11  2.3858240057113482e-10  1.5979139147992539e-09  7.1539151204200107e-09  2.5165293084464390e-08  7.5029367289544857e-08  1.9765154875455228e-07  4.7210012984730547e-07  1.0405060584874471e-06  2.1430298262141355e-06  4.1643011353219958e-06  7.6920478751790326e-06  1.3587715456216499e-05  2.3067814543080759e-05  3.7793623927227214e-05  5.9965821513084399e-05  9.2419719500895790e-05  1.3871612207831238e-04  2.0322246326913659e-04  2.9117884927868894e-04  4.0874392615125572e-04  5.6301609694804839e-04  7.6202647986260610e-04  1.0147010696183179e-03  1.3307907784703336e-03  1.7207692918977120e-03  2.1957000075688770e-03  2.7670743690197653e-03  3.4466252025293805e-03  4.2461211679238105e-03  5.1771311643076775e-03  6.2508720434357335e-03  7.4775447331234361e-03  8.8681903703249163e-03  1.0424960134212288e-02  1.2181616108011573e-02  1.4037884371691902e-02  1.6402363980555473e-02  1.7750410944664761e-02  3.6167638306903055e-15  3.6155942094333416e-15  3.6146032280282242e-15  3.6138494090868653e-15  3.6132665434307769e-15  3.6127945151850029e-15  3.6123968418019065e-15  3.6120639705625855e-15  3.6117663144326613e-15  3.6113445909426209e-15  3.6114985677663481e-15  3.6173422064142999e-15  3.6327282982785521e-15  3.6351390573968343e-15  3.7371802678967506e-15  5.1286081675341729e-15  1.1137240957641268e-14  2.3743919642435759e-14  4.1329893041085365e-14  1.3576552327178958e-13  8.0583792745552527e-13  3.6690196883757551e-12  1.1780184720700641e-11  2.9011575453577038e-11  6.7431675685733721e-11  2.1188481326577275e-10  8.9785986178092765e-10  3.7731664051440396e-09  1.3861130434209559e-08  4.4208946517013530e-08  1.2472315628683797e-07  3.1735305503039973e-07  7.4005028728902934e-07  1.6018918905619914e-06  3.2513334709647517e-06  6.2387520968243140e-06  1.1393303901578992e-05  1.9912771888921353e-05  3.3463659912232655e-05  5.4287452343854868e-05  8.5307845011677386e-05  1.3023297101665368e-04  1.9364626496331239e-04  2.8107965839167272e-04  3.9906326538529220e-04  5.5514655463687231e-04  7.5788714215326719e-04  1.0168046913198504e-03  1.3422988823034716e-03  1.7455319182611709e-03  2.2382774956168699e-03  2.8327394769207238e-03  3.5413447361996148e-03  4.3765153069389180e-03  5.3504263829140244e-03  6.4747563357651743e-03  7.7604270783347400e-03  9.2174193770248863e-03  1.0854162327019398e-02  1.2679307282988862e-02  1.4691876713075565e-02  1.6924689646657991e-02  1.9258936028886384e-02  2.2171106471030932e-02  2.3847666208775011e-02  3.7822843487671583e-15  3.7817028194268107e-15  3.7811485064955554e-15  3.7806438400719851e-15  3.7802034754033410e-15  3.7798265273713226e-15  3.7795112579302021e-15  3.7792618713857827e-15  3.7790669513785280e-15  3.7794787470616429e-15  3.7853445367932497e-15  3.8133203165385952e-15  3.9097409346671568e-15  4.3586598303403088e-15  6.8517752969731687e-15  1.7660993687064961e-14  5.2918288221075734e-14  1.5858556354592712e-13  5.4033614443362953e-13  2.0980234824323999e-12  7.8059852327558393e-12  2.5295307019953575e-11  7.3039615720826451e-11  2.0870251289217937e-10  6.6002267833995460e-10  2.3010970976596361e-09  8.0441916066082903e-09  2.6246701088174602e-08  7.7932938087172542e-08  2.1037784785072943e-07  5.2019679673579786e-07  1.1893137741701863e-06  2.5368680796231886e-06  5.0891956436345826e-06  9.6685363400745998e-06  1.7499233076529319e-05  3.0328134294230391e-05  5.0553945683519044e-05  8.1358636457522118e-05  1.2683287419980403e-04  1.9208695196156229e-04  2.8333881741402362e-04  4.0797158244351906e-04  5.7455419334781108e-04  7.9282065004090019e-04  1.0736051313840920e-03  1.4287324638849813e-03  1.8708654234092751e-03  2.4133122647992437e-03  3.0697995358701770e-03  3.8542165904132874e-03  4.7803391938557958e-03  5.8615403488832219e-03  7.1104963733307335e-03  8.5388974454076311e-03  1.0157168262531236e-02  1.1974206149582462e-02  1.3997189066666506e-02  1.6231058776721301e-02  1.8680212297904227e-02  2.1338653781881805e-02  2.4236437180341169e-02  2.7231915891431167e-02  3.0884642225207919e-02  3.2977353831656619e-02  3.9759270151461953e-15  3.9756809951439416e-15  3.9754432027997502e-15  3.9752167183438920e-15  3.9750065807207393e-15  3.9748204278248502e-15  3.9746808192904322e-15  3.9746844460173065e-15  3.9756143848447655e-15  3.9832916375986267e-15  4.0279208646621341e-15  4.2443394786795912e-15  5.2833587285252689e-15  1.0274996359285650e-14  3.1990400220696802e-14  1.1471672610398220e-13  4.0720419682467741e-13  1.4444313353419931e-12  5.1534547064320105e-12  1.7800748302710889e-11  5.7557751664968821e-11  1.7549241249050748e-10  5.2675743829013136e-10  1.6245115758089633e-09  5.1561091004343815e-09  1.6239976330505616e-08  4.8810426180653170e-08  1.3687548803697017e-07  3.5547816702860967e-07  8.5595815266233611e-07  1.9201967478814564e-06  4.0376857401706338e-06  8.0074508307846910e-06  1.5064265948159411e-05  2.7025572341388617e-05  4.6452503002095754e-05  7.6815831920039844e-05  1.2265585387581342e-04  1.8972435834800283e-04  2.8509705417037955e-04  4.1724596672236146e-04  5.9606330654898723e-04  8.3283087604040516e-04  1.1401319916411884e-03  1.5317059091024968e-03  2.0222476305111810e-03  2.6271585663941960e-03  3.3622556933843059e-03  4.2434485056638098e-03  5.2863941676046288e-03  6.5061418450681023e-03  7.9167772187492338e-03  9.5310778884031624e-03  1.1360189123981710e-02  1.3413330052841442e-02  1.5697533369696891e-02  1.8217433955232332e-02  2.0975117380075802e-02  2.3969779060940638e-02  2.7199246620254518e-02  3.0650749078560344e-02  3.4348388278064475e-02  3.8128970984488628e-02  4.2631383482451900e-02  4.5187871206806930e-02  4.1919014444716532e-15  4.1918388204178660e-15  4.1917802614000258e-15  4.1917262860873279e-15  4.1916800641718794e-15  4.1916630514084159e-15  4.1918182951348233e-15  4.1931896863010540e-15  4.2031591357889355e-15  4.2663494017877179e-15  4.6209586942771047e-15  6.4698377470996533e-15  1.5552079243839508e-14  5.6691685777586785e-14  2.2657123919984709e-13  8.7709628499628014e-13  3.2505747212861338e-12  1.1587089977756096e-11  3.9514002376210613e-11  1.2806137817145653e-10  3.9677379461407714e-10  1.1981893131644425e-09  3.5959317962781167e-09  1.0762618104656311e-08  3.1652644387821616e-08  8.9539380269545863e-08  2.3960853962077124e-07  6.0137998608832722e-07  1.4126842744584193e-06  3.1116431791076643e-06  6.4512470791809952e-06  1.2647754085530052e-05  2.3559731302910636e-05  4.1889850301629954e-05  7.1397320618210970e-05  1.1710575100934447e-04  1.8548968203450363e-04  2.8462317567910648e-04  4.2427557252887007e-04  6.1594254603482431e-04  8.7280450106898624e-04  1.2096087487593176e-03  1.6424763312310666e-03  2.1886385185558230e-03  2.8661115883164600e-03  3.6933213473816133e-03  4.6886908727690078e-03  5.8702061151957195e-03  7.2549743663633216e-03  8.8587902223404534e-03  1.0695722701542426e-02  1.2777735686311581e-02  1.5114352163860617e-02  1.7712370170303332e-02  2.0575638366218962e-02  2.3704888935671294e-02  2.7097649213133679e-02  3.0748193406665288e-02  3.4647467564273920e-02  3.8784346204033530e-02  4.3137747920997303e-02  4.7722403338193053e-02  5.2357946599354853e-02  5.7748060893413389e-02  6.0777925935687302e-02  4.4279059282033533e-15  4.4279457922113843e-15  4.4279882543289759e-15  4.4280352828237956e-15  4.4281041084623795e-15  4.4283378109193212e-15  4.4298681437483143e-15  4.4410747794155631e-15  4.5177147190522544e-15  4.9930549981866731e-15  7.6938622176591834e-15  2.1855932102199147e-14  9.0170573218530829e-14  3.9264745173808978e-13  1.6300056440454101e-12  6.3595045796938036e-12  2.3384049467674291e-11  8.1229997654057105e-11  2.6716554232616847e-10  8.3725511999109668e-10  2.5281568644028394e-09  7.4387101967833774e-09  2.1422845699400875e-08  6.0086588649083427e-08  1.6236145024306574e-07  4.1805609783589087e-07  1.0180978574777857e-06  2.3373119650311663e-06  5.0585266726192829e-06  1.0343050989581902e-05  2.0046492550409731e-05  3.6971551465649528e-05  6.5142288172972566e-05  1.1007877368615056e-04  1.7904792199224009e-04  2.8126605451799528e-04  4.2803121512471713e-04  6.3276791923949757e-04  9.1097314951424271e-04  1.2800592151348859e-03  1.7590958488005409e-03  2.3684600384653396e-03  3.1294071652934034e-03  4.0635808032477997e-03  5.1924809423362023e-03  6.5369114647065123e-03  8.1164275596804936e-03  9.9488025981272366e-03  1.2049532016417945e-02  1.4431389209156141e-02  1.7104045520589039e-02  2.0073763312813155e-02  2.3343168125219305e-02  2.6911102394293701e-02  3.0772563006868571e-02  3.4918712274193055e-02  3.9336987433087604e-02  4.4011215493783597e-02  4.8921878419884782e-02  5.4046996358489779e-02  5.9356351158874186e-02  6.4852250490824742e-02  7.0344965875829585e-02  7.6577350495176652e-02  8.0044206071140933e-02  4.6835412174237209e-15  4.6836424371941449e-15  4.6837470608015767e-15  4.6838677647562165e-15  4.6841197240379669e-15  4.6855029357034734e-15  4.6960352991320808e-15  4.7740746845252862e-15  5.3037851177311913e-15  8.5860580652343975e-15  2.7206678610843657e-14  1.2398111052485179e-13  5.8500752676231126e-13  2.6051385218639199e-12  1.0793019914904742e-11  4.1657120633606112e-11  1.5031511503785301e-10  5.0921173497707719e-10  1.6291387714832396e-09  4.9617433093838546e-09  1.4502359691678967e-08  4.0889224294364703e-08  1.1123471712352502e-07  2.9077123743712315e-07  7.2607376108817203e-07  1.7230115796649198e-06  3.8738587203960545e-06  8.2453935978965270e-06  1.6632653654009377e-05  3.1872238787934828e-05  5.8197017038337055e-05  1.0160357822412998e-04  1.7019707889109973e-04  2.7447638361330232e-04  4.2752561049963733e-04  6.4508541375957629e-04  9.4548717819757644e-04  1.3494442430495176e-03  1.8797049585489098e-03  2.5605817645685961e-03  3.4173778911285738e-03  4.4757383905361476e-03  5.7609549867106737e-03  7.2972548499599214e-03  9.1071021946251413e-03  1.1210538943720301e-02  1.3624587018902715e-02  1.6362730486485511e-02  1.9434491167843168e-02  2.2845106693866607e-02  2.6595315582694214e-02  3.0681249878489900e-02  3.5094432501471415e-02  3.9821872897632032e-02  4.4846255009035420e-02  5.0146197738493180e-02  5.5696615234111638e-02  6.1469029076842090e-02  6.7432208032197113e-02  7.3552555560583155e-02  7.9791151709650815e-02  8.6135865016598062e-02  9.2399048654722343e-02  9.9325990883352769e-02  1.0313760694167041e-01  4.9594793244916478e-15  4.9596234265754807e-15  4.9597789798955616e-15  4.9600229234835072e-15  4.9610809976487010e-15  4.9693146017918552e-15  5.0354630200146210e-15  5.5262792360245572e-15  8.8476320550858874e-15  2.9350165815466178e-14  1.4491451523991758e-13  7.4036980330128397e-13  3.5511765082537259e-12  1.5746261543606530e-11  6.4554289842844531e-11  2.4541811186761782e-10  8.6857469296957151e-10  2.8758598370593073e-09  8.9619471580694248e-09  2.6452438881797378e-08  7.4343133902650440e-08  1.9952109607965229e-07  5.1145476951464190e-07  1.2501636530566071e-06  2.9072569928555223e-06  6.4211648315531104e-06  1.3462287249233571e-05  2.6810572690791134e-05  5.0809170970451915e-05  9.1858145058934794e-05  1.5889720915140298e-04  2.6381988136381509e-04  4.2176434236125592e-04  6.5123725874895362e-04  9.7404304163672679e-04  1.4150093293437060e-03  2.0015171791808212e-03  2.7628595406901366e-03  3.7294628897591472e-03  4.9320139909568711e-03  6.4005367595666718e-03  8.1634636373740140e-03  1.0246742509878896e-02  1.2673014777874660e-02  1.5460893522021117e-02  1.8624363440965935e-02  2.2172316954235646e-02  2.6108233961187218e-02  3.0430006531861148e-02  3.5129904457123856e-02  4.0194673201285433e-02  4.5605752365086585e-02  5.1339600420040349e-02  5.7368109257602634e-02  6.3659094204990330e-02  7.0176831603584372e-02  7.6882673836452281e-02  8.3735544593823028e-02  9.0692926367283905e-02  9.7710616233262743e-02  1.0474315894636285e-01  1.1176362451919195e-01  1.1860123175465216e-01  1.2595696914015664e-01  1.2995801014162800e-01  5.2570400657288372e-15  5.2572252393854644e-15  5.2574634865797218e-15  5.2581899724110330e-15  5.2635718489841043e-15  5.3100937590599906e-15  5.6874252590314187e-15  8.4803658455222355e-15  2.7302172703497059e-14  1.4285158987609105e-13  7.8970778904055978e-13  4.0966303025191413e-12  1.9567114099514576e-11  8.5956993726893050e-11  3.4801779077239270e-10  1.3025760591488699e-09  4.5239956377193258e-09  1.4645706772231916e-08  4.4412353700188382e-08  1.2675233028164558e-07  3.4177432665817996e-07  8.7289554435813916e-07  2.1143917850073012e-06  4.8597754262917453e-06  1.0601546051589388e-05  2.1962731304763370e-05  4.3257280065051726e-05  8.1143905792088977e-05  1.4530590198369103e-04  2.4906836475139399e-04  4.0986082890822294e-04  6.4944777944340114e-04  9.9387669617396232e-04  1.4731258747859514e-03  2.1204656473483301e-03  2.9715724298316668e-03  4.0634531720745645e-03  5.4332478951936419e-03  7.1169807631180568e-03  9.1483268529607160e-03  1.1557454052590016e-02  1.4369988940005754e-02  1.7606143541967781e-02  2.1280027709744066e-02  2.5399160361137704e-02  2.9964182602899500e-02  3.4968767101652476e-02  4.0399711154000727e-02  4.6237195711508014e-02  5.2455189035561331e-02  5.9021971525275184e-02  6.5900757343523284e-02  7.3050388707390362e-02  8.0426079048208754e-02  8.7980185760415802e-02  9.5662981092003621e-02  1.0342345608393137e-01  1.1120992182710430e-01  1.1897124703859892e-01  1.2665584248946096e-01  1.3421584528838321e-01  1.4161123235591758e-01  1.4870527158762126e-01  1.5610049126412590e-01  1.6007126878983127e-01  5.5779880302754901e-15  5.5782374541101169e-15  5.5787384904641759e-15  5.5817436753060630e-15  5.6088991402539251e-15  5.8491419266672195e-15  7.7964921788993712e-15  2.2155689157260394e-14  1.1845258187802804e-13  7.0619196075987711e-13  3.9742209106196061e-12  2.0550704849355563e-11  9.7375911280105058e-11  4.2331664657847432e-10  1.6920698794678522e-09  6.2359224653357950e-09  2.1258261443658306e-08  6.7281218248127809e-08  1.9845818263970640e-07  5.4760249864972013e-07  1.4181586823476019e-06  3.4567566425808788e-06  7.9492110218087760e-06  1.7282307034024095e-05  3.5595350518202443e-05  6.9606191657839106e-05  1.2954317340807002e-04  2.3006372285673584e-04  3.9101120768506568e-04  6.3786635076516036e-04  1.0017872292967618e-03  1.5191904078526248e-03  2.2308879734934560e-03  3.1808468018785030e-03  4.4146699480483026e-03  5.9779151420613465e-03  7.9143654762233208e-03  1.0264357005203173e-02  1.3063251089922321e-02  1.6340119002725334e-02  2.0116685018007435e-02  2.4406553836361578e-02  2.9214730069443737e-02  3.4537422423497784e-02  4.0362113454116520e-02  4.6667867261416335e-02  5.3425841967968110e-02  6.0599970866264348e-02  6.8147775285926096e-02  7.6021273060844496e-02  8.4167948556567077e-02  9.2531753148967055e-02  1.0105410865405857e-01  1.0967488944794500e-01  1.1833336578438748e-01  1.2696908030236043e-01  1.3552270139336908e-01  1.4393659356978883e-01  1.5215614577089895e-01  1.6012786322627631e-01  1.6780740106481293e-01  1.7514544853451827e-01  1.8205728463575427e-01  1.8898947240029298e-01  1.9265332714671010e-01  5.9244536943131210e-15  5.9248597610880071e-15  5.9263994513509704e-15  5.9396559906210480e-15  6.0662388068302669e-15  7.1899300729751199e-15  1.6270387895764993e-14  8.2936730622368207e-14  5.2773697079254531e-13  3.2265441455201272e-12  1.8130641682365946e-11  9.3124686587297577e-11  4.3738083456915697e-10  1.8812447485204748e-09  7.4244272840838958e-09  2.6947351556333327e-08  9.0189568701498072e-08  2.7915894838776333e-07  8.0156861407721272e-07  2.1418585168577484e-06  5.3428223593696734e-06  1.2480932611559267e-05  2.7390254189931992e-05  5.6652888644402441e-05  1.1080753596627056e-04  2.0564661934132855e-04  3.6340299153509229e-04  6.1359634738119748e-04  9.9333206647824845e-04  1.5469186418823439e-03  2.3247753930112718e-03  3.3817115188040483e-03  4.7747426155093156e-03  6.5606541574940230e-03  8.7935221725367278e-03  1.1522371843327798e-02  1.4789111524079458e-02  1.8626835096085322e-02  2.3058545641564437e-02  2.8096319674023981e-02  3.3740903702959874e-02  3.9981713681569130e-02  4.6797192781662382e-02  5.4155473539790298e-02  6.2015285943996995e-02  7.0327052500351692e-02  7.9034113732094055e-02  8.8074032019130055e-02  9.7379927424516136e-02  1.0688180557173116e-01  1.1650784427139972e-01  1.2618561208521767e-01  1.3584319824623775e-01  1.4541023846805784e-01  1.5481882889189072e-01  1.6400431082457306e-01  1.7290598179389127e-01  1.8146746409992681e-01  1.8963793348716973e-01  1.9736924841779807e-01  2.0462765640404376e-01  2.1136002562609321e-01  2.1755020152034638e-01  2.2343325711578335e-01  2.2647400261748324e-01  6.2989367319365687e-15  6.2998151313650212e-15  6.3054213359406799e-15  6.3607526165979358e-15  6.8967089129068430e-15  1.1647153132157920e-14  4.9889761807097932e-14  3.2938113833882193e-13  2.1844534536698042e-12  1.3372905145568346e-11  7.4734285442597962e-11  3.8099558875800292e-10  1.7734671048099545e-09  7.5476556891157328e-09  2.9416372728690877e-08  1.0518882298397973e-07  3.4584170977017316e-07  1.0479447257825753e-06  2.9341155056647830e-06  7.6123874884185212e-06  1.8357335362835925e-05  4.1286657547255981e-05  8.6920169895378312e-05  1.7197631473134736e-04  3.2113194355798207e-04  5.6840329249742102e-04  9.5782985637275731e-04  1.5432406838651849e-03  2.3870123709381756e-03  3.5578610145441513e-03  5.1278394816758237e-03  7.1688265360298140e-03  9.7488665478195763e-03  1.2928718017967990e-02  1.6758895914232234e-02  2.1277380738354564e-02  2.6508059180568994e-02  3.2459882737721137e-02  3.9126684237108286e-02  4.6487568103929872e-02  5.4507778648816917e-02  6.3139946418141205e-02  7.2325613870928313e-02  8.1996947401689307e-02  9.2078551903410827e-02  1.0248931533472050e-01  1.1314422289409522e-01  1.2395609247303743e-01  1.3483719443015291e-01  1.4570