<?xml version="1.0"?>
<VTKFile type="UnstructuredGrid"  version="0.1"  >
<UnstructuredGrid>
<Piece  NumberOfPoints="4225" NumberOfCells="8192">
<Points>
<DataArray  type="Float64"  NumberOfComponents="3"  format="ascii">0 0 0  0.015625 0 0  0.03125 0 0  0.046875 0 0  0.0625 0 0  0.078125 0 0  0.09375 0 0  0.109375 0 0  0.125 0 0  0.140625 0 0  0.15625 0 0  0.171875 0 0  0.1875 0 0  0.203125 0 0  0.21875 0 0  0.234375 0 0  0.25 0 0  0.265625 0 0  0.28125 0 0  0.296875 0 0  0.3125 0 0  0.328125 0 0  0.34375 0 0  0.359375 0 0  0.375 0 0  0.390625 0 0  0.40625 0 0  0.421875 0 0  0.4375 0 0  0.453125 0 0  0.46875 0 0  0.484375 0 0  0.5 0 0  0.515625 0 0  0.53125 0 0  0.546875 0 0  0.5625 0 0  0.578125 0 0  0.59375 0 0  0.609375 0 0  0.625 0 0  0.640625 0 0  0.65625 0 0  0.671875 0 0  0.6875 0 0  0.703125 0 0  0.71875 0 0  0.734375 0 0  0.75 0 0  0.765625 0 0  0.78125 0 0  0.796875 0 0  0.8125 0 0  0.828125 0 0  0.84375 0 0  0.859375 0 0  0.875 0 0  0.890625 0 0  0.90625 0 0  0.921875 0 0  0.9375 0 0  0.953125 0 0  0.96875 0 0  0.984375 0 0  1 0 0  0 0.015625 0  0.015625 0.015625 0  0.03125 0.015625 0  0.046875 0.015625 0  0.0625 0.015625 0  0.078125 0.015625 0  0.09375 0.015625 0  0.109375 0.015625 0  0.125 0.015625 0  0.140625 0.015625 0  0.15625 0.015625 0  0.171875 0.015625 0  0.1875 0.015625 0  0.203125 0.015625 0  0.21875 0.015625 0  0.234375 0.015625 0  0.25 0.015625 0  0.265625 0.015625 0  0.28125 0.015625 0  0.296875 0.015625 0  0.3125 0.015625 0  0.328125 0.015625 0  0.34375 0.015625 0  0.359375 0.015625 0  0.375 0.015625 0  0.390625 0.015625 0  0.40625 0.015625 0  0.421875 0.015625 0  0.4375 0.015625 0  0.453125 0.015625 0  0.46875 0.015625 0  0.484375 0.015625 0  0.5 0.015625 0  0.515625 0.015625 0  0.53125 0.015625 0  0.546875 0.015625 0  0.5625 0.015625 0  0.578125 0.015625 0  0.59375 0.015625 0  0.609375 0.015625 0  0.625 0.015625 0  0.640625 0.015625 0  0.65625 0.015625 0  0.671875 0.015625 0  0.6875 0.015625 0  0.703125 0.015625 0  0.71875 0.015625 0  0.734375 0.015625 0  0.75 0.015625 0  0.765625 0.015625 0  0.78125 0.015625 0  0.796875 0.015625 0  0.8125 0.015625 0  0.828125 0.015625 0  0.84375 0.015625 0  0.859375 0.015625 0  0.875 0.015625 0  0.890625 0.015625 0  0.90625 0.015625 0  0.921875 0.015625 0  0.9375 0.015625 0  0.953125 0.015625 0  0.96875 0.015625 0  0.984375 0.015625 0  1 0.015625 0  0 0.03125 0  0.015625 0.03125 0  0.03125 0.03125 0  0.046875 0.03125 0  0.0625 0.03125 0  0.078125 0.03125 0  0.09375 0.03125 0  0.109375 0.03125 0  0.125 0.03125 0  0.140625 0.03125 0  0.15625 0.03125 0  0.171875 0.03125 0  0.1875 0.03125 0  0.203125 0.03125 0  0.21875 0.03125 0  0.234375 0.03125 0  0.25 0.03125 0  0.265625 0.03125 0  0.28125 0.03125 0  0.296875 0.03125 0  0.3125 0.03125 0  0.328125 0.03125 0  0.34375 0.03125 0  0.359375 0.03125 0  0.375 0.03125 0  0.390625 0.03125 0  0.40625 0.03125 0  0.421875 0.03125 0  0.4375 0.03125 0  0.453125 0.03125 0  0.46875 0.03125 0  0.484375 0.03125 0  0.5 0.03125 0  0.515625 0.03125 0  0.53125 0.03125 0  0.546875 0.03125 0  0.5625 0.03125 0  0.578125 0.03125 0  0.59375 0.03125 0  0.609375 0.03125 0  0.625 0.03125 0  0.640625 0.03125 0  0.65625 0.03125 0  0.671875 0.03125 0  0.6875 0.03125 0  0.703125 0.03125 0  0.71875 0.03125 0  0.734375 0.03125 0  0.75 0.03125 0  0.765625 0.03125 0  0.78125 0.03125 0  0.796875 0.03125 0  0.8125 0.03125 0  0.828125 0.03125 0  0.84375 0.03125 0  0.859375 0.03125 0  0.875 0.03125 0  0.890625 0.03125 0  0.90625 0.03125 0  0.921875 0.03125 0  0.9375 0.03125 0  0.953125 0.03125 0  0.96875 0.03125 0  0.984375 0.03125 0  1 0.03125 0  0 0.046875 0  0.015625 0.046875 0  0.03125 0.046875 0  0.046875 0.046875 0  0.0625 0.046875 0  0.078125 0.046875 0  0.09375 0.046875 0  0.109375 0.046875 0  0.125 0.046875 0  0.140625 0.046875 0  0.15625 0.046875 0  0.171875 0.046875 0  0.1875 0.046875 0  0.203125 0.046875 0  0.21875 0.046875 0  0.234375 0.046875 0  0.25 0.046875 0  0.265625 0.046875 0  0.28125 0.046875 0  0.296875 0.046875 0  0.3125 0.046875 0  0.328125 0.046875 0  0.34375 0.046875 0  0.359375 0.046875 0  0.375 0.046875 0  0.390625 0.046875 0  0.40625 0.046875 0  0.421875 0.046875 0  0.4375 0.046875 0  0.453125 0.046875 0  0.46875 0.046875 0  0.484375 0.046875 0  0.5 0.046875 0  0.515625 0.046875 0  0.53125 0.046875 0  0.546875 0.046875 0  0.5625 0.046875 0  0.578125 0.046875 0  0.59375 0.046875 0  0.609375 0.046875 0  0.625 0.046875 0  0.640625 0.046875 0  0.65625 0.046875 0  0.671875 0.046875 0  0.6875 0.046875 0  0.703125 0.046875 0  0.71875 0.046875 0  0.734375 0.046875 0  0.75 0.046875 0  0.765625 0.046875 0  0.78125 0.046875 0  0.796875 0.046875 0  0.8125 0.046875 0  0.828125 0.046875 0  0.84375 0.046875 0  0.859375 0.046875 0  0.875 0.046875 0  0.890625 0.046875 0  0.90625 0.046875 0  0.921875 0.046875 0  0.9375 0.046875 0  0.953125 0.046875 0  0.96875 0.046875 0  0.984375 0.046875 0  1 0.046875 0  0 0.0625 0  0.015625 0.0625 0  0.03125 0.0625 0  0.046875 0.0625 0  0.0625 0.0625 0  0.078125 0.0625 0  0.09375 0.0625 0  0.109375 0.0625 0  0.125 0.0625 0  0.140625 0.0625 0  0.15625 0.0625 0  0.171875 0.0625 0  0.1875 0.0625 0  0.203125 0.0625 0  0.21875 0.0625 0  0.234375 0.0625 0  0.25 0.0625 0  0.265625 0.0625 0  0.28125 0.0625 0  0.296875 0.0625 0  0.3125 0.0625 0  0.328125 0.0625 0  0.34375 0.0625 0  0.359375 0.0625 0  0.375 0.0625 0  0.390625 0.0625 0  0.40625 0.0625 0  0.421875 0.0625 0  0.4375 0.0625 0  0.453125 0.0625 0  0.46875 0.0625 0  0.484375 0.0625 0  0.5 0.0625 0  0.515625 0.0625 0  0.53125 0.0625 0  0.546875 0.0625 0  0.5625 0.0625 0  0.578125 0.0625 0  0.59375 0.0625 0  0.609375 0.0625 0  0.625 0.0625 0  0.640625 0.0625 0  0.65625 0.0625 0  0.671875 0.0625 0  0.6875 0.0625 0  0.703125 0.0625 0  0.71875 0.0625 0  0.734375 0.0625 0  0.75 0.0625 0  0.765625 0.0625 0  0.78125 0.0625 0  0.796875 0.0625 0  0.8125 0.0625 0  0.828125 0.0625 0  0.84375 0.0625 0  0.859375 0.0625 0  0.875 0.0625 0  0.890625 0.0625 0  0.90625 0.0625 0  0.921875 0.0625 0  0.9375 0.0625 0  0.953125 0.0625 0  0.96875 0.0625 0  0.984375 0.0625 0  1 0.0625 0  0 0.078125 0  0.015625 0.078125 0  0.03125 0.078125 0  0.046875 0.078125 0  0.0625 0.078125 0  0.078125 0.078125 0  0.09375 0.078125 0  0.109375 0.078125 0  0.125 0.078125 0  0.140625 0.078125 0  0.15625 0.078125 0  0.171875 0.078125 0  0.1875 0.078125 0  0.203125 0.078125 0  0.21875 0.078125 0  0.234375 0.078125 0  0.25 0.078125 0  0.265625 0.078125 0  0.28125 0.078125 0  0.296875 0.078125 0  0.3125 0.078125 0  0.328125 0.078125 0  0.34375 0.078125 0  0.359375 0.078125 0  0.375 0.078125 0  0.390625 0.078125 0  0.40625 0.078125 0  0.421875 0.078125 0  0.4375 0.078125 0  0.453125 0.078125 0  0.46875 0.078125 0  0.484375 0.078125 0  0.5 0.078125 0  0.515625 0.078125 0  0.53125 0.078125 0  0.546875 0.078125 0  0.5625 0.078125 0  0.578125 0.078125 0  0.59375 0.078125 0  0.609375 0.078125 0  0.625 0.078125 0  0.640625 0.078125 0  0.65625 0.078125 0  0.671875 0.078125 0  0.6875 0.078125 0  0.703125 0.078125 0  0.71875 0.078125 0  0.734375 0.078125 0  0.75 0.078125 0  0.765625 0.078125 0  0.78125 0.078125 0  0.796875 0.078125 0  0.8125 0.078125 0  0.828125 0.078125 0  0.84375 0.078125 0  0.859375 0.078125 0  0.875 0.078125 0  0.890625 0.078125 0  0.90625 0.078125 0  0.921875 0.078125 0  0.9375 0.078125 0  0.953125 0.078125 0  0.96875 0.078125 0  0.984375 0.078125 0  1 0.078125 0  0 0.09375 0  0.015625 0.09375 0  0.03125 0.09375 0  0.046875 0.09375 0  0.0625 0.09375 0  0.078125 0.09375 0  0.09375 0.09375 0  0.109375 0.09375 0  0.125 0.09375 0  0.140625 0.09375 0  0.15625 0.09375 0  0.171875 0.09375 0  0.1875 0.09375 0  0.203125 0.09375 0  0.21875 0.09375 0  0.234375 0.09375 0  0.25 0.09375 0  0.265625 0.09375 0  0.28125 0.09375 0  0.296875 0.09375 0  0.3125 0.09375 0  0.328125 0.09375 0  0.34375 0.09375 0  0.359375 0.09375 0  0.375 0.09375 0  0.390625 0.09375 0  0.40625 0.09375 0  0.421875 0.09375 0  0.4375 0.09375 0  0.453125 0.09375 0  0.46875 0.09375 0  0.484375 0.09375 0  0.5 0.09375 0  0.515625 0.09375 0  0.53125 0.09375 0  0.546875 0.09375 0  0.5625 0.09375 0  0.578125 0.09375 0  0.59375 0.09375 0  0.609375 0.09375 0  0.625 0.09375 0  0.640625 0.09375 0  0.65625 0.09375 0  0.671875 0.09375 0  0.6875 0.09375 0  0.703125 0.09375 0  0.71875 0.09375 0  0.734375 0.09375 0  0.75 0.09375 0  0.765625 0.09375 0  0.78125 0.09375 0  0.796875 0.09375 0  0.8125 0.09375 0  0.828125 0.09375 0  0.84375 0.09375 0  0.859375 0.09375 0  0.875 0.09375 0  0.890625 0.09375 0  0.90625 0.09375 0  0.921875 0.09375 0  0.9375 0.09375 0  0.953125 0.09375 0  0.96875 0.09375 0  0.984375 0.09375 0  1 0.09375 0  0 0.109375 0  0.015625 0.109375 0  0.03125 0.109375 0  0.046875 0.109375 0  0.0625 0.109375 0  0.078125 0.109375 0  0.09375 0.109375 0  0.109375 0.109375 0  0.125 0.109375 0  0.140625 0.109375 0  0.15625 0.109375 0  0.171875 0.109375 0  0.1875 0.109375 0  0.203125 0.109375 0  0.21875 0.109375 0  0.234375 0.109375 0  0.25 0.109375 0  0.265625 0.109375 0  0.28125 0.109375 0  0.296875 0.109375 0  0.3125 0.109375 0  0.328125 0.109375 0  0.34375 0.109375 0  0.359375 0.109375 0  0.375 0.109375 0  0.390625 0.109375 0  0.40625 0.109375 0  0.421875 0.109375 0  0.4375 0.109375 0  0.453125 0.109375 0  0.46875 0.109375 0  0.484375 0.109375 0  0.5 0.109375 0  0.515625 0.109375 0  0.53125 0.109375 0  0.546875 0.109375 0  0.5625 0.109375 0  0.578125 0.109375 0  0.59375 0.109375 0  0.609375 0.109375 0  0.625 0.109375 0  0.640625 0.109375 0  0.65625 0.109375 0  0.671875 0.109375 0  0.6875 0.109375 0  0.703125 0.109375 0  0.71875 0.109375 0  0.734375 0.109375 0  0.75 0.109375 0  0.765625 0.109375 0  0.78125 0.109375 0  0.796875 0.109375 0  0.8125 0.109375 0  0.828125 0.109375 0  0.84375 0.109375 0  0.859375 0.109375 0  0.875 0.109375 0  0.890625 0.109375 0  0.90625 0.109375 0  0.921875 0.109375 0  0.9375 0.109375 0  0.953125 0.109375 0  0.96875 0.109375 0  0.984375 0.109375 0  1 0.109375 0  0 0.125 0  0.015625 0.125 0  0.03125 0.125 0  0.046875 0.125 0  0.0625 0.125 0  0.078125 0.125 0  0.09375 0.125 0  0.109375 0.125 0  0.125 0.12
[...]
<PointData  Scalars="f_14444"> 
<DataArray  type="Float64"  Name="f_14444"  format="ascii">5.0939442739817646e-02  5.9346850296674351e-02  7.7837499939573396e-02  1.0222385371257239e-01  1.3189671235037786e-01  1.6677169419851445e-01  2.0645490656383858e-01  2.5002044189290018e-01  2.9593450013256589e-01  3.4205850854915276e-01  3.8574356884757827e-01  4.2402722172328033e-01  4.5392488221466754e-01  4.7278530932917245e-01  4.7865792074677105e-01  4.7060602815386493e-01  4.4890001925599105e-01  4.1504112983336500e-01  3.7159798204025002e-01  3.2187762982998724e-01  2.6948997802092406e-01  2.1788830523952224e-01  1.6997187573886743e-01  1.2781825532651858e-01  9.2578832220743618e-02  6.4531853536935066e-02  4.3254538695254086e-02  2.7857801391804025e-02  1.7226335444962174e-02  1.0220055510572442e-02  5.8132647422959767e-03  3.1680539335906420e-03  1.6530048154020191e-03  8.2521900231908197e-04  3.9389377579055146e-04  1.7963736979286000e-04  7.8216824943403381e-05  3.2489702855010575e-05  1.2863477373680228e-05  4.8497711303062547e-06  1.7392516981594528e-06  5.9256919847613566e-07  1.9152140938378908e-07  5.8620189928399411e-08  1.6956257778896703e-08  4.6235445648836197e-09  1.1847893556971562e-09  2.8421992973478814e-10  6.3517034820459316e-11  1.3139953774721340e-11  2.4951804103482739e-12  4.2991160125610572e-13  6.6099903323267401e-14  8.8427684230361712e-15  9.8739132853025176e-16  8.5270405541946596e-17  4.8597076573159627e-18  1.5528972697135401e-19  3.0608233356722481e-20  9.8734284203232127e-21  1.0438599507153323e-21  -1.4879022869619136e-22  -5.8297995499737079e-23  -1.0747335288617494e-24  6.6957117603285193e-24  4.5799412796497144e-02  5.3416083458574633e-02  7.0961047399597674e-02  9.4123943406202087e-02  1.2253851785416642e-01  1.5631939405783843e-01  1.9525112241963516e-01  2.3858757155311594e-01  2.8496445326780229e-01  3.3237540739799271e-01  3.7823545730612868e-01  4.1955051776897434e-01  4.5319261430651647e-01  4.7625661402660024e-01  4.8644992176439489e-01  4.8244825821540294e-01  4.6414521033483269e-01  4.3273530713382924e-01  3.9059983166015871e-01  3.4100561526982587e-01  2.8766913849403686e-01  2.3426922137348205e-01  1.8400185555569612e-01  1.3925701187241932e-01  1.0146399222651624e-01  7.1109726768348147e-02  4.7896203867982927e-02  3.0979318353202931e-02  1.9226291181847977e-02  1.1440263225591215e-02  6.5217719296795660e-03  3.5592842374325435e-03  1.8582698502693975e-03  9.2743788675646375e-04  4.4214648215218176e-04  2.0119470627865248e-04  8.7313361686227947e-05  3.6105668893433834e-05  1.4212757964387441e-05  5.3200401215532684e-06  1.8912162758529392e-06  6.3756317497361416e-07  2.0347442286221171e-07  6.1347540609644460e-08  1.7429329641659412e-08  4.6514478475756356e-09  1.1614019722877994e-09  2.6990777535980270e-10  5.7981982656722066e-11  1.1404601834390113e-11  2.0256638069788342e-12  3.1795143999521601e-13  4.2463282732865689e-14  4.4512301874387031e-15  2.8125379728350446e-16  -9.7721427689708823e-18  -5.1338695294926623e-18  -5.2907900240986653e-19  2.1967255737237358e-20  1.1964578753687540e-20  4.0512940531421126e-22  -3.8803343335818658e-22  -7.8758646736657006e-23  2.9969588107374479e-24  9.1379713594702897e-24  3.7492276887795238e-02  4.3813169780958568e-02  5.9302762269689349e-02  8.0027965523381622e-02  1.0598442064387072e-01  1.3755404984145239e-01  1.7481074670662922e-01  2.1733604799771022e-01  2.6409670909103500e-01  3.1336755492605189e-01  3.6273507218629086e-01  4.0921062318236090e-01  4.4946599840836171e-01  4.8018041751801327e-01  4.9845974990271713e-01  5.0226240386916043e-01  4.9075058022465562e-01  4.6448787222787574e-01  4.2542779990030155e-01  3.7667958747178792e-01  3.2208741983585426e-01  2.6570344185677730e-01  2.1125927918978976e-01  1.6173787552366539e-01  1.1911793580834384e-01  8.4317042870362027e-02  5.7311477653721667e-02  3.7375197094577671e-02  2.3365815853968908e-02  1.3992187160991062e-02  8.0197260524818292e-03  4.3961579343492199e-03  2.3030487559367453e-03  1.1521987866392803e-03  5.5007505906922132e-04  2.5041158723258713e-04  1.0861193216524831e-04  4.4845722901177818e-05  1.7610921883174012e-05  6.5707392419876692e-06  2.3265594331475735e-06  7.8073980646980426e-07  2.4792761698906465e-07  7.4369105479355208e-08  2.1027900273935312e-08  5.5905944897813490e-09  1.3935075789795210e-09  3.2453603960274076e-10  7.0340687164926878e-11  1.4126855247614330e-11  2.6174054957937838e-12  4.4588847386968572e-13  6.9856573579312094e-14  1.0154967074332071e-14  1.4039592355022831e-15  1.9212117937380171e-16  2.6686470807533788e-17  3.6041452698636561e-18  4.1043920231586155e-19  2.6938712302084427e-20  -1.8086228047772897e-21  -6.6388676350873839e-22  -1.8300191575737991e-23  2.1585594549167158e-23  9.6963048112215487e-24  3.0388112846645193e-02  3.5858978381937030e-02  4.9443461016886153e-02  6.7855907456202902e-02  9.1386085137751483e-02  1.2062144042686229e-01  1.5589341436248250e-01  1.9709910370010403e-01  2.4354691199150208e-01  2.9383238996731187e-01  3.4578352853586730e-01  3.9651210295523492e-01  4.4259678714527090e-01  4.8040224758590994e-01  5.0650796825515387e-01  5.1818752189771500e-01  5.1385285356959765e-01  4.9336892412725258e-01  4.5815876370799347e-01  4.1105797376805631e-01  3.5593296638823363e-01  2.9713371757581597e-01  2.3889217517033809e-01  1.8478841081033351e-01  1.3738437171189891e-01  9.8077285922672328e-02  6.7167542652979279e-02  4.4087454757439845e-02  2.7711050405418075e-02  1.6664939819008077e-02  9.5809565116137373e-03  5.2616116387851179e-03  2.7579704068606738e-03  1.3787283576267141e-03  6.5680923307834087e-04  2.9792922880185002e-04  1.2856486070353054e-04  5.2730052364168243e-05  2.0533766895421477e-05  7.5830035702239946e-06  2.6520577997124808e-06  8.7698648057928415e-07  2.7366936975712932e-07  8.0397754016506605e-08  2.2168683874887500e-08  5.7151640996477770e-09  1.3704472685625108e-09  3.0346394046798889e-10  6.1392630369973654e-11  1.1151966215237894e-11  1.7610845465393362e-12  2.2413055712223077e-13  1.7189427181803017e-14  -1.4403833266636340e-15  -9.7457838727511237e-16  -2.6205738412847134e-16  -5.3329695819208583e-17  -9.1374686949132686e-18  -1.3511298586657253e-18  -1.6740846447017513e-19  -1.5075986350986560e-20  -3.3799903546080083e-22  1.8287849243955609e-22  2.6839731634376813e-23  -6.7159771136552690e-24  2.4264206499613344e-02  2.8916294993506828e-02  4.0589024472598177e-02  5.6669196460810520e-02  7.7651577779610334e-02  1.0428803986599326e-01  1.3714783467795344e-01  1.7644023588588773e-01  2.2183706242349915e-01  2.7230819874518131e-01  3.2600882260633468e-01  3.8026135380929860e-01  4.3167056303102758e-01  4.7639284043976532e-01  5.1055054138394840e-01  5.3074446246165596e-01  5.3458121985108009e-01  5.2110966846953022e-01  4.9106244389769677e-01  4.4683028123532564e-01  3.9215351892372230e-01  3.3158277900435079e-01  2.6981884254888217e-01  2.1107103587153123e-01  1.5856379536082535e-01  1.1427584083119717e-01  7.8931456431927602e-02  5.2200730079950124e-02  3.3024386156267627e-02  1.9968281804628448e-02  1.1529870066994092e-02  6.3522537344451215e-03  3.3365822073916935e-03  1.6695602833345831e-03  7.9521398029193640e-04  3.6024340209840416e-04  1.5508579980088070e-04  6.3390169799561050e-05  2.4576543324032822e-05  9.0281013657000683e-06  3.1384463551390807e-06  1.0310113038607972e-06  3.1954670366075021e-07  9.3262026500414671e-08  2.5575379409479405e-08  6.5735015187706585e-09  1.5791513024852686e-09  3.5356444085227680e-10  7.3605395876168668e-11  1.4240749770601900e-11  2.5720095158105652e-12  4.4041180473316479e-13  7.4048663276546037e-14  1.2915513352285906e-14  2.4442185079069394e-15  4.9672357717171175e-16  1.0214408960549552e-16  1.9966940068523629e-17  3.5495514230222516e-18  5.5469598436014004e-19  7.2965895541666432e-20  7.3280459190204811e-21  3.6959860766334315e-22  -4.2123459259107497e-23  -2.6273316793083245e-23  1.9074788202290385e-02  2.2965014641395762e-02  3.2831956157821258e-02  4.6660318609265075e-02  6.5082759861871495e-02  8.8978910272367193e-02  1.1912374539467879e-01  1.5601743948225735e-01  1.9969659298501419e-01  2.4953842668938253e-01  3.0409434230713200e-01  3.6099992631590111e-01  4.1701057603504532e-01  4.6820067211219180e-01  5.1033748228186193e-01  5.3940108823843103e-01  5.5217669806332026e-01  5.4680884878616076e-01  5.2319280473367658e-01  4.8309744658416881e-01  4.2996701808624216e-01  3.6842466476861252e-01  3.0357681109680718e-01  2.4026905200765666e-01  1.8245317824074062e-01  1.3278786246027499e-01  9.2525882385355598e-02  6.1663365806969565e-02  3.9267089905957953e-02  2.3870576825729177e-02  1.3840145991418966e-02  7.6469149184286416e-03  4.0228510671519715e-03  2.0133688167887518e-03  9.5784029623264611e-04  4.3278602908567988e-04  1.8555610709421213e-04  7.5418907246254334e-05  2.9028459328075230e-05  1.0567653836257369e-05  3.6335311759430671e-06  1.1779908953320696e-06  3.5935626053635026e-07  1.0288865280837443e-07  2.7558105139555578e-08  6.8754147584649241e-09  1.5883202298713585e-09  3.3681454687592556e-10  6.4655352546723118e-11  1.0951329409833933e-11  1.5440786890412330e-12  1.4836506093037037e-13  -3.8460433589824434e-15  -6.9189626406523038e-15  -2.4086656109110371e-15  -6.4222361406370449e-16  -1.5228270955760341e-16  -3.3497765894684738e-17  -6.8640719195928741e-18  -1.2905886462481925e-18  -2.1673201068797480e-19  -3.1182776737036833e-20  -3.5527367506523082e-21  -2.4466191438490960e-22  2.2082927800154288e-23  1.4752402458073596e-02  1.7949586915276473e-02  2.6149320736069057e-02  3.7844578573439001e-02  5.3754597763676172e-02  7.4846374672073668e-02  1.0205881259085609e-01  1.3614899069837577e-01  1.7750335523851882e-01  2.2592141958878342e-01  2.8040405232429011e-01  3.3899386006241250e-01  3.9872426748951084e-01  4.5573073966796285e-01  5.0555729320996889e-01  5.4365310330102534e-01  5.6600324601043472e-01  5.6978713645996804e-01  5.5392537008604370e-01  5.1937671645931238e-01  4.6908983779434199e-01  4.0759263002913415e-01  3.4029473944849170e-01  2.7265583896186529e-01  2.0940635075377451e-01  1.5398568674978461e-01  1.0829376511048171e-01  7.2760371639792501e-02  4.6656259261487865e-02  2.8524830934559934e-02  1.6612210010175498e-02  9.2072984097529894e-03  4.8524348536615062e-03  2.4296307422628947e-03  1.1547984449522706e-03  5.2057558347987781e-04  2.2237391134792840e-04  8.9926962935888612e-05  3.4391005259125048e-05  1.2423232041081263e-05  4.2332066048117466e-06  1.3585097607656194e-06  4.0983273959064914e-07  1.1597034578136618e-07  3.0701625374566561e-08  7.5814717299710747e-09  1.7405859360707192e-09  3.7034159984862401e-10  7.2887553562370290e-11  1.3303859757857089e-11  2.2856137893112094e-12  3.8534529841031495e-13  6.9045208573715815e-14  1.4243246471413237e-14  3.3719316250545474e-15  8.4680453567899353e-16  2.1027699969637879e-16  4.9923840208680005e-17  1.1195922203263333e-17  2.3547337415328758e-18  4.5923829129823824e-19  8.1393612923480274e-20  1.2675772962592313e-20  1.5825946208896974e-21  2.7273041841287436e-22  1.1215838485769777e-02  1.3796365581766562e-02  2.0490762506270042e-02  3.0211415038096809e-02  4.3718718863086981e-02  6.2024345203756090e-02  8.6184111379089379e-02  1.1716776316595109e-01  1.5568051874162608e-01  2.0193883694436082e-01  2.5542551126499413e-01  3.1466791922680076e-01  3.7709917232250384e-01  4.3906804935763710e-01  4.9605257570692546e-01  5.4309942635849850e-01  5.7545884739406816e-01  5.8932304955462889e-01  5.8252351579922745e-01  5.5502088113396930e-01  5.0904605968720351e-01  4.4882490245948803e-01  3.7992371458166502e-01  3.0835668779184311e-01  2.3966205288985254e-01  1.7815658404894433e-01  1.2651666701864520e-01  8.5732232938146496e-02  5.5375822078488394e-02  3.4058627320076272e-02  1.9926797383895523e-02  1.1080080916007680e-02  5.8499299535560096e-03  2.9300727700719825e-03  1.3910650276997933e-03  6.2542294956457079e-04  2.6604646594592240e-04  1.0697171072418291e-04  4.0609990363895795e-05  1.4538126236002744e-05  4.9007703554026209e-06  1.5529145401626896e-06  4.6157412208299879e-07  1.2835357929600217e-07  3.3281402159817205e-08  8.0118095695970392e-09  1.7799563556367085e-09  3.6179147265905054e-10  6.6334238694170909e-11  1.0677951853508941e-11  1.4108789880546155e-12  1.1605975494219042e-13  -1.0763538682214481e-14  -8.8265528321772365e-15  -3.1215286941874799e-15  -9.1982625741476208e-16  -2.5074859824044244e-16  -6.4776175953163795e-17  -1.5873299828141805e-17  -3.6721617392195334e-18  -7.9709942923295531e-19  -1.6095908154732962e-19  -2.9811129746278553e-20  -4.8383061943643639e-21  -1.4115988742431443e-21  8.3753789501632807e-03  1.0419273143535137e-02  1.5784470816442884e-02  2.3718636975997569e-02  3.4983486689180832e-02  5.0594549293188913e-02  7.1675847482716298e-02  9.9357929638322823e-02  1.3461931416886339e-01  1.7806769215914531e-01  2.2967666316882729e-01  2.8851426666938734e-01  3.5252125833128939e-01  4.1841272467392215e-01  4.8177708784571044e-01  5.3742372775805713e-01  5.7998146772122861e-01  6.0468146785439525e-01  6.0818702760957544e-01  5.8928464215362109e-01  5.4924999303845767e-01  4.9176182592380441e-01  4.2234675164414059e-01  3.4746691457331880e-01  2.7346532061415385e-01  2.0562110856689964e-01  1.4752393931924038e-01  1.0087009544887862e-01  6.5655015286490662e-02  4.0635407847995644e-02  2.3890374432738275e-02  1.3328950069276256e-02  7.0504306762277508e-03  3.5325457305918082e-03  1.6750371560514783e-03  7.5099084889234768e-04  3.1806273752041641e-04  1.2712312405751245e-04  4.7894979661750139e-05  1.6988827441784338e-05  5.6651228967857783e-06  1.7728577078977681e-06  5.1957768282687876e-07  1.4224594026916215e-07  3.6266504848549332e-08  8.5789528772541893e-09  1.8746808145571449e-09  3.7663350108946320e-10  6.9294571351646999e-11  1.1687001653313005e-11  1.8404971994916281e-12  2.8905432342816194e-13  5.2032509098049405e-14  1.2022845561763540e-14  3.3356010473936156e-15  9.7187245565822860e-16  2.7742608568407776e-16  7.6085061329754167e-17  1.9965127184822085e-17  4.9969061936399208e-18  1.1866958230575301e-18  2.6556669610560205e-19  5.5508690299215045e-20  1.0554910236484504e-20  3.8789625413676325e-21  6.1376013677870624e-03  7.7248859705999874e-03  1.1942489082043244e-02  1.8296879598378151e-02  2.7518213612390627e-02  4.0589537691670535e-02  5.8655480996211519e-02  8.2951178099214706e-02  1.1467158362962486e-01  1.5477098535426578e-01  2.0369776717622126e-01  2.6108985343687152e-01  3.2548182178540613e-01  3.9409893146676456e-01  4.6282640815844422e-01  5.2643310750437389e-01  5.7908905789655407e-01  6.1514690738063538e-01  6.3007149619122627e-01  6.2132600509209746e-01  5.8898960953727131e-01  5.3591525699794496e-01  4.6734040009308425e-01  3.9001215936363942e-01  3.1103143011617862e-01  2.3670327063864108e-01  1.7166950832803926e-01  1.1849817397829886e-01  7.7754979609993433e-02  4.8444020846631269e-02  2.8626848233309354e-02  1.6028060092048487e-02  8.4945070055746381e-03  4.2573389890017263e-03  2.0159679882221352e-03  9.0110656945116161e-04  3.7984300839327548e-04  1.5084362740957393e-04  5.6371090899026234e-05  1.9798591553859675e-05  6.5253681902882210e-06  2.0145696702448612e-06  5.8130829809955546e-07  1.5634684820935536e-07  3.9060287161361652e-08  9.0246372901036558e-09  1.9171000320179558e-09  3.7142747212455646e-10  6.4830119789322890e-11  9.9702627825923220e-12  1.2806466303292582e-12  1.1123528975568464e-13  -5.3230237411826441e-15  -6.6263686741998606e-15  -2.6388846876601434e-15  -8.8069534826912522e-16  -2.7376048293017670e-16  -8.0809663271319276e-17  -2.2725615711277870e-17  -6.0947075403714966e-18  -1.5583126763609544e-18  -3.7890164630105721e-19  -8.7146653523974827e-20  -1.8656274307110086e-20  -7.9447339025829909e-21  4.4097225022489139e-03  5.6172859340708108e-03  8.8664306434108591e-03  1.3855649201285514e-02  2.1258475558223213e-02  3.1995352693728531e-02  4.7187786328675825e-02  6.8118655424042454e-02  9.6135010945670854e-02  1.3247709695037008e-01  1.7802768236591185e-01  2.3299403016011772e-01  2.9656172947668435e-01  3.6659047442456705e-01  4.3944736080102953e-01  5.1008031240972185e-01  5.7240979686587512e-01  6.2005443376503810e-01  6.4731221092545388e-01  6.5021767867736302e-01  6.2742398339760908e-01  5.8065485251860893e-01  5.1455559684491048e-01  4.3593012748358562e-01  3.5253326254808970e-01  2.7172548473570207e-01  1.9933369194811945e-01  1.3898008248597998e-01  9.1976894723137040e-02  5.7706547515389721e-02  3.4283933660121682e-02  1.9266638913297253e-02  1.0231265880899265e-02  5.1290982580027827e-03  2.4251264321812991e-03  1.0804514417003025e-03  4.5314572370952749e-04  1.7872619153557720e-04  6.6216101275284265e-05  2.3014362868008970e-05  7.4925183451969443e-06  2.2805931874688863e-06  6.4755774903082331e-07  1.7104464011860340e-07  4.1882940284710345e-08  9.4665350449288480e-09  1.9645438151404144e-09  3.7195191539857092e-10  6.3813030706538609e-11  9.8790801925645959e-12  1.3951403804617036e-12  1.9227312495392508e-13  3.1463734298456943e-14  7.4789792861609193e-15  2.3187097240013654e-15  7.6650006053702339e-16  2.4894233085299612e-16  7.7934953801389234e-17  2.3399113237405275e-17  6.7184175174069088e-18  1.8414975185294855e-18  4.8127464496683840e-19  1.1969824012370056e-19  2.8150063784318999e-20  1.3359045243586170e-20  3.1032540421862390e-03  4.0023597188082946e-03  6.4530430481818286e-03  1.0289836773346616e-02  1.6112622063610412e-02  2.4756478859243460e-02  3.7282329180992467e-02  5.4966997350497843e-02  7.9242267900129573e-02  1.1156192796621391e-01  1.5318085473711707e-01  2.0484441644132212e-01  2.6641185807183160e-01  3.3647178335697342e-01  4.1204388001481795e-01  4.8848529358763598e-01  5.5971566484490254e-01  6.1882764933366352e-01  6.5905720879928609e-01  6.7496716078045416e-01  6.6358644871358297e-01  6.2519557087081912e-01  5.6349513421705222e-01  4.8504552394157274e-01  3.9808024131850350e-01  3.1099514187770549e-01  2.3091774265866397e-01  1.6271933311426273e-01  1.0866557676691396e-01  6.8682557333656427e-02  4.1036634915130855e-02  2.3151236273702365e-02  1.2319514602976280e-02  6.1772746687376945e-03  2.9158765826427960e-03  1.2944978149267582e-03  5.3997724009159946e-04  2.1142000760120811e-04  7.7610112598637280e-05  2.6676058756513096e-05  8.5719363735917319e-06  2.5702106268340896e-06  7.1742984474455387e-07  1.8588825015298173e-07  4.4545669644139351e-08  9.8274136282285943e-09  1.9842331389548579e-09  3.6385153302580484e-10  5.9961247632172235e-11  8.7383423941560674e-12  1.0899127830254785e-12  1.0414848408103948e-13  2.2178446783828049e-15  -3.0581878992802130e-15  -1.5041173993871676e-15  -5.7830875987734874e-16  -2.0476376669775376e-16  -6.8645863202838307e-17  -2.1956240599156854e-17  -6.7188442550437559e-18  -1.9674606555365686e-18  -5.5068097087641856e-19  -1.4707509379132651e-19  -3.7483918424803623e-20  -1.9364300545156175e-20  2.1368271579345587e-03  2.7913395781241530e-03  4.5992819831229981e-03  7.4862639011190005e-03  1.1969137773513532e-02  1.8782714467231083e-02  2.8897910007934548e-02  4.3538003617976197e-02  6.4153742868928512e-02  9.2333494241067501e-02  1.2962447000903793e-01  1.7724979973400948e-01  2.3572734541479962e-01  3.0443047936585022e-01  3.8117420834155363e-01  4.6195030759627087e-01  5.4095382009702331e-01  6.1101951048439995e-01  6.6450722232817516e-01  6.9454539224791745e-01  6.9639509571579294e-01  6.6858905956336534e-01  6.1349083208756938e-01  5.3704135713495604e-01  4.4769210762848238e-01  3.5478633663497683e-01  2.6683504361833982e-01  1.9015828321786252e-01  1.2821295144957170e-01  8.1674042514773781e-02  4.9091662222215587e-02  2.7808836719423122e-02  1.4829597403446372e-02  7.4370546433956183e-03  3.5040883963394502e-03  1.5496716472898969e-03  6.4265386802241900e-04  2.4965696340023677e-04  9.0749821751056641e-05  3.0825608818525593e-05  9.7691782382667134e-06  2.8830381078126307e-06  7.9041518695741904e-07  2.0071613077144725e-07  4.7034109174937352e-08  1.0123142238760140e-08  1.9895256155