<?xml version="1.0"?>
<VTKFile type="UnstructuredGrid"  version="0.1"  >
<UnstructuredGrid>
<Piece  NumberOfPoints="4225" NumberOfCells="8192">
<Points>
<DataArray  type="Float64"  NumberOfComponents="3"  format="ascii">0 0 0  0.015625 0 0  0.03125 0 0  0.046875 0 0  0.0625 0 0  0.078125 0 0  0.09375 0 0  0.109375 0 0  0.125 0 0  0.140625 0 0  0.15625 0 0  0.171875 0 0  0.1875 0 0  0.203125 0 0  0.21875 0 0  0.234375 0 0  0.25 0 0  0.265625 0 0  0.28125 0 0  0.296875 0 0  0.3125 0 0  0.328125 0 0  0.34375 0 0  0.359375 0 0  0.375 0 0  0.390625 0 0  0.40625 0 0  0.421875 0 0  0.4375 0 0  0.453125 0 0  0.46875 0 0  0.484375 0 0  0.5 0 0  0.515625 0 0  0.53125 0 0  0.546875 0 0  0.5625 0 0  0.578125 0 0  0.59375 0 0  0.609375 0 0  0.625 0 0  0.640625 0 0  0.65625 0 0  0.671875 0 0  0.6875 0 0  0.703125 0 0  0.71875 0 0  0.734375 0 0  0.75 0 0  0.765625 0 0  0.78125 0 0  0.796875 0 0  0.8125 0 0  0.828125 0 0  0.84375 0 0  0.859375 0 0  0.875 0 0  0.890625 0 0  0.90625 0 0  0.921875 0 0  0.9375 0 0  0.953125 0 0  0.96875 0 0  0.984375 0 0  1 0 0  0 0.015625 0  0.015625 0.015625 0  0.03125 0.015625 0  0.046875 0.015625 0  0.0625 0.015625 0  0.078125 0.015625 0  0.09375 0.015625 0  0.109375 0.015625 0  0.125 0.015625 0  0.140625 0.015625 0  0.15625 0.015625 0  0.171875 0.015625 0  0.1875 0.015625 0  0.203125 0.015625 0  0.21875 0.015625 0  0.234375 0.015625 0  0.25 0.015625 0  0.265625 0.015625 0  0.28125 0.015625 0  0.296875 0.015625 0  0.3125 0.015625 0  0.328125 0.015625 0  0.34375 0.015625 0  0.359375 0.015625 0  0.375 0.015625 0  0.390625 0.015625 0  0.40625 0.015625 0  0.421875 0.015625 0  0.4375 0.015625 0  0.453125 0.015625 0  0.46875 0.015625 0  0.484375 0.015625 0  0.5 0.015625 0  0.515625 0.015625 0  0.53125 0.015625 0  0.546875 0.015625 0  0.5625 0.015625 0  0.578125 0.015625 0  0.59375 0.015625 0  0.609375 0.015625 0  0.625 0.015625 0  0.640625 0.015625 0  0.65625 0.015625 0  0.671875 0.015625 0  0.6875 0.015625 0  0.703125 0.015625 0  0.71875 0.015625 0  0.734375 0.015625 0  0.75 0.015625 0  0.765625 0.015625 0  0.78125 0.015625 0  0.796875 0.015625 0  0.8125 0.015625 0  0.828125 0.015625 0  0.84375 0.015625 0  0.859375 0.015625 0  0.875 0.015625 0  0.890625 0.015625 0  0.90625 0.015625 0  0.921875 0.015625 0  0.9375 0.015625 0  0.953125 0.015625 0  0.96875 0.015625 0  0.984375 0.015625 0  1 0.015625 0  0 0.03125 0  0.015625 0.03125 0  0.03125 0.03125 0  0.046875 0.03125 0  0.0625 0.03125 0  0.078125 0.03125 0  0.09375 0.03125 0  0.109375 0.03125 0  0.125 0.03125 0  0.140625 0.03125 0  0.15625 0.03125 0  0.171875 0.03125 0  0.1875 0.03125 0  0.203125 0.03125 0  0.21875 0.03125 0  0.234375 0.03125 0  0.25 0.03125 0  0.265625 0.03125 0  0.28125 0.03125 0  0.296875 0.03125 0  0.3125 0.03125 0  0.328125 0.03125 0  0.34375 0.03125 0  0.359375 0.03125 0  0.375 0.03125 0  0.390625 0.03125 0  0.40625 0.03125 0  0.421875 0.03125 0  0.4375 0.03125 0  0.453125 0.03125 0  0.46875 0.03125 0  0.484375 0.03125 0  0.5 0.03125 0  0.515625 0.03125 0  0.53125 0.03125 0  0.546875 0.03125 0  0.5625 0.03125 0  0.578125 0.03125 0  0.59375 0.03125 0  0.609375 0.03125 0  0.625 0.03125 0  0.640625 0.03125 0  0.65625 0.03125 0  0.671875 0.03125 0  0.6875 0.03125 0  0.703125 0.03125 0  0.71875 0.03125 0  0.734375 0.03125 0  0.75 0.03125 0  0.765625 0.03125 0  0.78125 0.03125 0  0.796875 0.03125 0  0.8125 0.03125 0  0.828125 0.03125 0  0.84375 0.03125 0  0.859375 0.03125 0  0.875 0.03125 0  0.890625 0.03125 0  0.90625 0.03125 0  0.921875 0.03125 0  0.9375 0.03125 0  0.953125 0.03125 0  0.96875 0.03125 0  0.984375 0.03125 0  1 0.03125 0  0 0.046875 0  0.015625 0.046875 0  0.03125 0.046875 0  0.046875 0.046875 0  0.0625 0.046875 0  0.078125 0.046875 0  0.09375 0.046875 0  0.109375 0.046875 0  0.125 0.046875 0  0.140625 0.046875 0  0.15625 0.046875 0  0.171875 0.046875 0  0.1875 0.046875 0  0.203125 0.046875 0  0.21875 0.046875 0  0.234375 0.046875 0  0.25 0.046875 0  0.265625 0.046875 0  0.28125 0.046875 0  0.296875 0.046875 0  0.3125 0.046875 0  0.328125 0.046875 0  0.34375 0.046875 0  0.359375 0.046875 0  0.375 0.046875 0  0.390625 0.046875 0  0.40625 0.046875 0  0.421875 0.046875 0  0.4375 0.046875 0  0.453125 0.046875 0  0.46875 0.046875 0  0.484375 0.046875 0  0.5 0.046875 0  0.515625 0.046875 0  0.53125 0.046875 0  0.546875 0.046875 0  0.5625 0.046875 0  0.578125 0.046875 0  0.59375 0.046875 0  0.609375 0.046875 0  0.625 0.046875 0  0.640625 0.046875 0  0.65625 0.046875 0  0.671875 0.046875 0  0.6875 0.046875 0  0.703125 0.046875 0  0.71875 0.046875 0  0.734375 0.046875 0  0.75 0.046875 0  0.765625 0.046875 0  0.78125 0.046875 0  0.796875 0.046875 0  0.8125 0.046875 0  0.828125 0.046875 0  0.84375 0.046875 0  0.859375 0.046875 0  0.875 0.046875 0  0.890625 0.046875 0  0.90625 0.046875 0  0.921875 0.046875 0  0.9375 0.046875 0  0.953125 0.046875 0  0.96875 0.046875 0  0.984375 0.046875 0  1 0.046875 0  0 0.0625 0  0.015625 0.0625 0  0.03125 0.0625 0  0.046875 0.0625 0  0.0625 0.0625 0  0.078125 0.0625 0  0.09375 0.0625 0  0.109375 0.0625 0  0.125 0.0625 0  0.140625 0.0625 0  0.15625 0.0625 0  0.171875 0.0625 0  0.1875 0.0625 0  0.203125 0.0625 0  0.21875 0.0625 0  0.234375 0.0625 0  0.25 0.0625 0  0.265625 0.0625 0  0.28125 0.0625 0  0.296875 0.0625 0  0.3125 0.0625 0  0.328125 0.0625 0  0.34375 0.0625 0  0.359375 0.0625 0  0.375 0.0625 0  0.390625 0.0625 0  0.40625 0.0625 0  0.421875 0.0625 0  0.4375 0.0625 0  0.453125 0.0625 0  0.46875 0.0625 0  0.484375 0.0625 0  0.5 0.0625 0  0.515625 0.0625 0  0.53125 0.0625 0  0.546875 0.0625 0  0.5625 0.0625 0  0.578125 0.0625 0  0.59375 0.0625 0  0.609375 0.0625 0  0.625 0.0625 0  0.640625 0.0625 0  0.65625 0.0625 0  0.671875 0.0625 0  0.6875 0.0625 0  0.703125 0.0625 0  0.71875 0.0625 0  0.734375 0.0625 0  0.75 0.0625 0  0.765625 0.0625 0  0.78125 0.0625 0  0.796875 0.0625 0  0.8125 0.0625 0  0.828125 0.0625 0  0.84375 0.0625 0  0.859375 0.0625 0  0.875 0.0625 0  0.890625 0.0625 0  0.90625 0.0625 0  0.921875 0.0625 0  0.9375 0.0625 0  0.953125 0.0625 0  0.96875 0.0625 0  0.984375 0.0625 0  1 0.0625 0  0 0.078125 0  0.015625 0.078125 0  0.03125 0.078125 0  0.046875 0.078125 0  0.0625 0.078125 0  0.078125 0.078125 0  0.09375 0.078125 0  0.109375 0.078125 0  0.125 0.078125 0  0.140625 0.078125 0  0.15625 0.078125 0  0.171875 0.078125 0  0.1875 0.078125 0  0.203125 0.078125 0  0.21875 0.078125 0  0.234375 0.078125 0  0.25 0.078125 0  0.265625 0.078125 0  0.28125 0.078125 0  0.296875 0.078125 0  0.3125 0.078125 0  0.328125 0.078125 0  0.34375 0.078125 0  0.359375 0.078125 0  0.375 0.078125 0  0.390625 0.078125 0  0.40625 0.078125 0  0.421875 0.078125 0  0.4375 0.078125 0  0.453125 0.078125 0  0.46875 0.078125 0  0.484375 0.078125 0  0.5 0.078125 0  0.515625 0.078125 0  0.53125 0.078125 0  0.546875 0.078125 0  0.5625 0.078125 0  0.578125 0.078125 0  0.59375 0.078125 0  0.609375 0.078125 0  0.625 0.078125 0  0.640625 0.078125 0  0.65625 0.078125 0  0.671875 0.078125 0  0.6875 0.078125 0  0.703125 0.078125 0  0.71875 0.078125 0  0.734375 0.078125 0  0.75 0.078125 0  0.765625 0.078125 0  0.78125 0.078125 0  0.796875 0.078125 0  0.8125 0.078125 0  0.828125 0.078125 0  0.84375 0.078125 0  0.859375 0.078125 0  0.875 0.078125 0  0.890625 0.078125 0  0.90625 0.078125 0  0.921875 0.078125 0  0.9375 0.078125 0  0.953125 0.078125 0  0.96875 0.078125 0  0.984375 0.078125 0  1 0.078125 0  0 0.09375 0  0.015625 0.09375 0  0.03125 0.09375 0  0.046875 0.09375 0  0.0625 0.09375 0  0.078125 0.09375 0  0.09375 0.09375 0  0.109375 0.09375 0  0.125 0.09375 0  0.140625 0.09375 0  0.15625 0.09375 0  0.171875 0.09375 0  0.1875 0.09375 0  0.203125 0.09375 0  0.21875 0.09375 0  0.234375 0.09375 0  0.25 0.09375 0  0.265625 0.09375 0  0.28125 0.09375 0  0.296875 0.09375 0  0.3125 0.09375 0  0.328125 0.09375 0  0.34375 0.09375 0  0.359375 0.09375 0  0.375 0.09375 0  0.390625 0.09375 0  0.40625 0.09375 0  0.421875 0.09375 0  0.4375 0.09375 0  0.453125 0.09375 0  0.46875 0.09375 0  0.484375 0.09375 0  0.5 0.09375 0  0.515625 0.09375 0  0.53125 0.09375 0  0.546875 0.09375 0  0.5625 0.09375 0  0.578125 0.09375 0  0.59375 0.09375 0  0.609375 0.09375 0  0.625 0.09375 0  0.640625 0.09375 0  0.65625 0.09375 0  0.671875 0.09375 0  0.6875 0.09375 0  0.703125 0.09375 0  0.71875 0.09375 0  0.734375 0.09375 0  0.75 0.09375 0  0.765625 0.09375 0  0.78125 0.09375 0  0.796875 0.09375 0  0.8125 0.09375 0  0.828125 0.09375 0  0.84375 0.09375 0  0.859375 0.09375 0  0.875 0.09375 0  0.890625 0.09375 0  0.90625 0.09375 0  0.921875 0.09375 0  0.9375 0.09375 0  0.953125 0.09375 0  0.96875 0.09375 0  0.984375 0.09375 0  1 0.09375 0  0 0.109375 0  0.015625 0.109375 0  0.03125 0.109375 0  0.046875 0.109375 0  0.0625 0.109375 0  0.078125 0.109375 0  0.09375 0.109375 0  0.109375 0.109375 0  0.125 0.109375 0  0.140625 0.109375 0  0.15625 0.109375 0  0.171875 0.109375 0  0.1875 0.109375 0  0.203125 0.109375 0  0.21875 0.109375 0  0.234375 0.109375 0  0.25 0.109375 0  0.265625 0.109375 0  0.28125 0.109375 0  0.296875 0.109375 0  0.3125 0.109375 0  0.328125 0.109375 0  0.34375 0.109375 0  0.359375 0.109375 0  0.375 0.109375 0  0.390625 0.109375 0  0.40625 0.109375 0  0.421875 0.109375 0  0.4375 0.109375 0  0.453125 0.109375 0  0.46875 0.109375 0  0.484375 0.109375 0  0.5 0.109375 0  0.515625 0.109375 0  0.53125 0.109375 0  0.546875 0.109375 0  0.5625 0.109375 0  0.578125 0.109375 0  0.59375 0.109375 0  0.609375 0.109375 0  0.625 0.109375 0  0.640625 0.109375 0  0.65625 0.109375 0  0.671875 0.109375 0  0.6875 0.109375 0  0.703125 0.109375 0  0.71875 0.109375 0  0.734375 0.109375 0  0.75 0.109375 0  0.765625 0.109375 0  0.78125 0.109375 0  0.796875 0.109375 0  0.8125 0.109375 0  0.828125 0.109375 0  0.84375 0.109375 0  0.859375 0.109375 0  0.875 0.109375 0  0.890625 0.109375 0  0.90625 0.109375 0  0.921875 0.109375 0  0.9375 0.109375 0  0.953125 0.109375 0  0.96875 0.109375 0  0.984375 0.109375 0  1 0.109375 0  0 0.125 0  0.015625 0.125 0  0.03125 0.125 0  0.046875 0.125 0  0.0625 0.125 0  0.078125 0.125 0  0.09375 0.125 0  0.109375 0.125 0  0.125 0.12
[...]
<PointData  Scalars="f_14444"> 
<DataArray  type="Float64"  Name="f_14444"  format="ascii">1.7049708975009056e-14  1.7384205292969701e-14  1.7909920199314276e-14  1.8464754178102727e-14  1.9038715115668887e-14  1.9631649586070547e-14  2.0243936023605671e-14  2.0875844968396192e-14  2.1527401583244561e-14  2.2198227204865438e-14  2.2887296456359491e-14  2.3592559475965870e-14  2.4310350294357230e-14  2.5034447776341433e-14  2.5754560432183335e-14  2.6453865624233761e-14  2.7105103881941455e-14  2.7664821008968625e-14  2.8066090399402716e-14  2.8211901984897377e-14  2.7974254561644226e-14  2.7206259526122046e-14  2.5773126512533412e-14  2.3600052537607601e-14  2.0722234325331097e-14  1.7312166630274281e-14  1.3662199120409408e-14  1.0119466683946117e-14  6.9962559892964983e-15  4.4939908263233293e-15  2.6717545307952697e-15  1.4655715685335188e-15  7.3990644850454709e-16  3.4312188451339159e-16  1.4594143389869318e-16  5.6882491343200287e-17  2.0320411385326010e-17  6.6751655998642859e-18  2.0448560400795918e-18  6.1588478729118300e-19  2.1468874499227248e-19  1.1217630075563876e-19  8.8326310852111510e-20  8.3271073229208331e-20  8.2294191200543048e-20  8.2121939319469108e-20  8.2094195396955204e-20  8.2090108206743987e-20  8.2089556576772926e-20  8.2089488227576273e-20  8.2089480432567368e-20  8.2089479611568904e-20  8.2089479531372398e-20  8.2089479524067563e-20  8.2089479523442791e-20  8.2089479523392163e-20  8.2089479523388203e-20  8.2089479523387878e-20  8.2089479523387866e-20  8.2089479523387854e-20  8.2089479523387794e-20  8.2089479523387770e-20  8.2089479523387709e-20  8.2089479523387697e-20  8.2089479523387637e-20  1.7068524474580687e-14  1.7370391252360821e-14  1.7917833143231082e-14  1.8478077199801623e-14  1.9059955073869312e-14  1.9665308399841949e-14  2.0297141481011919e-14  2.0959721600090889e-14  2.1659237357661637e-14  2.2404772297358828e-14  2.3209745288507936e-14  2.4093999079355268e-14  2.5086714940342749e-14  2.6230166865977070e-14  2.7583743326470924e-14  2.9226242725384430e-14  3.1251865899398574e-14  3.3752117258810753e-14  3.6774542800091899e-14  4.0254802629399532e-14  4.3935502650820807e-14  4.7310740819960631e-14  4.9653212694780518e-14  5.0165960996658439e-14  4.8241025710532852e-14  4.3726823608540806e-14  3.7063759127472406e-14  2.9192623712074946e-14  2.1260047109119311e-14  1.4260738849196045e-14  8.7840341118383923e-15  4.9566678575393864e-15  2.5574945190541270e-15  1.2048151994872144e-15  5.1759827240162094e-16  2.0260155795884723e-16  7.2219409243600352e-17  2.3454403188510960e-17  6.9659979630416932e-18  1.9242992958114183e-18  5.2982487318842422e-19  1.8087958645509348e-19  1.0187131958041856e-19  8.5683253300214640e-20  8.2681658279980212e-20  8.2177966446727371e-20  8.2101467845786964e-20  8.2090952005087787e-20  8.2089643490455550e-20  8.2089496079177390e-20  8.2089481039785154e-20  8.2089479649489838e-20  8.2089479532924589e-20  8.2089479524045908e-20  8.2089479523429538e-20  8.2089479523390309e-20  8.2089479523387938e-20  8.2089479523387818e-20  8.2089479523387806e-20  8.2089479523387770e-20  8.2089479523387733e-20  8.2089479523387721e-20  8.2089479523387685e-20  8.2089479523387649e-20  8.2089479523387637e-20  1.7103164432826344e-14  1.7425983025059693e-14  1.8022284100676559e-14  1.8643596391244104e-14  1.9323176662358618e-14  2.0082739949491477e-14  2.0957307023429991e-14  2.2000669433937387e-14  2.3295353577484893e-14  2.4967476894309937e-14  2.7208766564736286e-14  3.0308603099586127e-14  3.4699141656062833e-14  4.1014878897984570e-14  5.0161327242165302e-14  6.3370587102575622e-14  8.2190059621320036e-14  1.0830913060337201e-13  1.4310543469307909e-13  1.8684437565317788e-13  2.3765033181979087e-13  2.9066650740183624e-13  3.3806087096360269e-13  3.7043233537242427e-13  3.7955306340622840e-13  3.6147516293874856e-13  3.1846290209571418e-13  2.5856884817667443e-13  1.9289947540177563e-13  1.3191281800374385e-13  8.2529977850300738e-14  4.7166230642603973e-14  2.4592023931166532e-14  1.1685466520303365e-14  5.0560031041882609e-15  1.9904926693229495e-15  7.1259768617693462e-16  2.3188346444646912e-16  6.8583096325753346e-17  1.8462252495238907e-17  4.5582265039596999e-18  1.0711057063479287e-18  2.8029020268881910e-19  1.1810366473510600e-19  8.8021197957361237e-20  8.2974807186435893e-20  8.2209188626873492e-20  8.2104139645161576e-20  8.2091105174281916e-20  8.2089642713241188e-20  8.2089494349860217e-20  8.2089480742298744e-20  8.2089479614048430e-20  8.2089479529487719e-20  8.2089479523759065e-20  8.2089479523408233e-20  8.2089479523388793e-20  8.2089479523387842e-20  8.2089479523387770e-20  8.2089479523387770e-20  8.2089479523387721e-20  8.2089479523387685e-20  8.2089479523387649e-20  8.2089479523387637e-20  8.2089479523387637e-20  1.7447110670703776e-14  1.8010834589443569e-14  1.8964123732995737e-14  2.0146195884193744e-14  2.1716597734964459e-14  2.3885485494736359e-14  2.6983180580047537e-14  3.1522176879482142e-14  3.8294497834257406e-14  4.8518196718326625e-14  6.4055769120558588e-14  8.7734185825485502e-14  1.2379919649746054e-13  1.7852144009038581e-13  2.6090734868686429e-13  3.8330191673897877e-13  5.6135601382817778e-13  8.1241161891148782e-13  1.1511079669758395e-12  1.5814969623803187e-12  2.0867600640997721e-12  2.6205833651679403e-12  3.1067007793041209e-12  3.4522237542084443e-12  3.5743787768489099e-12  3.4312990582900453e-12  3.0417362250385012e-12  2.4818151026129634e-12  1.8588867461474516e-12  1.2753825308669568e-12  8.0015399052629274e-13  4.5838548610170464e-13  2.3949647663727172e-13  1.1401202810742072e-13  4.9411197460750330e-14  1.9481252369732386e-14  6.9833228865179280e-15  2.2747587975113593e-15  6.7305689225394068e-16  1.8084584291846308e-16  4.4146820081269424e-17  9.8271667791164062e-18  2.0366615235879068e-18  4.3752156501251702e-19  1.4067270750002426e-19  9.0838923254790040e-20  8.3273233614665070e-20  8.2234524915206457e-20  8.2105571113075838e-20  8.2091095523073045e-20  8.2089626392087492e-20  8.2089491600555319e-20  8.2089480421757882e-20  8.2089479583825967e-20  8.2089479527064454e-20  8.2089479523589968e-20  8.2089479523397784e-20  8.2089479523388167e-20  8.2089479523387697e-20  8.2089479523387637e-20  8.2089479523387661e-20  8.2089479523387649e-20  8.2089479523387613e-20  8.2089479523387637e-20  8.2089479523387649e-20  2.0266309993117287e-14  2.2686183523494498e-14  2.6456961717039114e-14  3.2134824704873902e-14  4.0857538282258203e-14  5.4374540308617024e-14  7.5428128860883082e-14  1.0829487120681299e-13  1.5961742572773714e-13  2.3966698232407323e-13  3.6424108726884168e-13  5.5747039690991907e-13  8.5584472247348811e-13  1.3136509118774663e-12  2.0094619153210337e-12  3.0518568287809073e-12  4.5797446092744903e-12  6.7488619063763249e-12  9.6936235885362676e-12  1.3457585111907413e-11  1.7901635200763993e-11  2.2625492542944409e-11  2.6960441527456017e-11  3.0084209498951799e-11  3.1256286565858908e-11  3.0092062586205088e-11  2.6741539019477670e-11  2.1865637122624242e-11  1.6408206541579717e-11  1.1276523751098722e-11  7.0853910610843860e-12  4.0646100953628704e-12  2.1263629312476866e-12  1.0134427658561021e-12  4.3969336266515091e-13  1.7353494913959034e-13  6.2265745865365467e-14  2.0300587770769337e-14  6.0112500945365624e-15  1.6160128831254926e-15  3.9429704416995820e-16  8.7326488756952450e-17  1.7592417337549934e-17  3.2682656316230918e-18  6.0754672126086117e-19  1.6060869768405519e-19  9.2717910095261935e-20  8.3392360170094429e-20  8.2234081413221211e-20  8.2104006403066524e-20  8.2090800206620165e-20  8.2089588154893776e-20  8.2089487605983925e-20  8.2089480067258590e-20  8.2089479556478580e-20  8.2089479525207918e-20  8.2089479523478180e-20  8.2089479523391718e-20  8.2089479523387818e-20  8.2089479523387661e-20  8.2089479523387661e-20  8.2089479523387661e-20  8.2089479523387637e-20  8.2089479523387637e-20  8.2089479523387673e-20  4.1071994490722276e-14  5.6566963662733598e-14  8.0862862618290887e-14  1.1936615649102821e-13  1.8043272031625533e-13  2.7721959800220082e-13  4.3040536188094077e-13  6.7237437922895088e-13  1.0536576134027065e-12  1.6527791800732351e-12  2.5911746905892320e-12  4.0554450040081626e-12  6.3295820459973337e-12  9.8389763868890989e-12  1.5203719920957715e-11  2.3287097339684858e-11  3.5202507371149910e-11  5.2210948589670070e-11  7.5420780765161060e-11  1.0523260662372334e-10  1.4059839787605772e-10  1.7837749048440185e-10  2.1325589034697935e-10  2.3864513015640969e-10  2.4855881881238152e-10  2.3982095270642009e-10  2.1352792326525075e-10  1.7489348483304436e-10  1.3144455917473504e-10  9.0462154589166467e-11  5.6913655143863857e-11  3.2688241472968741e-11  1.7119674539230570e-11  8.1679501733005036e-12  3.5472634516809654e-12  1.4013182094274795e-12  5.0324988572552900e-13  1.6421281086056258e-13  4.8663731378961207e-14  1.3091776196518671e-14  3.1961443035651223e-15  7.0788218286801197e-16  1.4222990573687883e-16  2.5962458290083592e-17  4.3525500176274914e-18  7.2054678773108877e-19  1.6855154678307857e-19  9.2692849578777058e-20  8.3266756516529992e-20  8.2207790640138319e-20  8.2100238829193780e-20  8.2090364758311274e-20  8.2089545403858640e-20  8.2089483957349187e-20  8.2089479793213095e-20  8.2089479538231790e-20  8.2089479524125798e-20  8.2089479523420823e-20  8.2089479523389021e-20  8.2089479523387721e-20  8.2089479523387661e-20  8.2089479523387637e-20  8.2089479523387637e-20  8.2089479523387637e-20  8.2089479523387697e-20  1.8228297946418182e-13  2.8275128198717940e-13  4.4470070931229519e-13  7.0354649281694488e-13  1.1165988447483804e-12  1.7744215657180344e-12  2.8197601902976551e-12  4.4769129761658370e-12  7.0971559889164387e-12  1.1228598909690166e-11  1.7722711821239636e-11  2.7894370641685269e-11  4.3755451482596515e-11  6.8336725064197109e-11  1.0608247672251270e-10  1.6321844314391068e-10  2.4782829643635707e-10  3.6914419017491053e-10  5.3540077773935488e-10  7.4981823789779546e-10  1.0051913373649749e-09  1.2791208824069984e-09  1.5332876996666612e-09  1.7198440804777616e-09  1.7949839835774173e-09  1.7350538634014363e-09  1.5473606388863796e-09  1.2692668110214386e-09  9.5523022584904598e-10  6.5822176358923740e-10  4.1459427939598915e-10  2.3837885489554278e-10  1.2497224793002480e-10  5.9682799379996383e-11  2.5943365654844735e-11  1.0257629528228990e-11  3.6868304877863065e-12  1.2039775649289814e-12  3.5706026022443845e-13  9.6126156119864260e-14  2.3483031625933810e-14  5.2039165340327408e-15  1.0457931775362446e-15  1.9057715095930274e-16  3.1531511066944849e-17  4.7861986750602503e-18  7.1941552850730106e-19  1.6027991217336771e-19  9.0773992353423104e-20  8.2962518142775368e-20  8.2168897345955721e-20  8.2096015398823976e-20  8.2089966042935924e-20  8.2089512274207760e-20  8.2089481516765682e-20  8.2089479633068060e-20  8.2089479528842376e-20  8.2089479523632808e-20  8.2089479523397580e-20  8.2089479523387974e-20  8.2089479523387649e-20  8.2089479523387613e-20  8.2089479523387649e-20  8.2089479523387685e-20  8.2089479523387721e-20  1.0675509613490210e-12  1.6783885679752759e-12  2.6918865342916105e-12  4.3138732542263807e-12  6.9065194760165800e-12  1.1042152508707570e-11  1.7624730218910515e-11  2.8077952410372595e-11  4.4637373532414959e-11  7.0801639515862452e-11  1.1202406532282447e-10  1.7675745968912983e-10  2.7798854061008995e-10  4.3536744478231657e-10  6.7784308555972355e-10  1.0461666560843393e-09  1.5935331760770677e-09  2.3810988950732590e-09  3.4640425555813581e-09  4.8652053584661507e-09  6.5393110439552732e-09  8.3410776130399994e-09  1.0019669036112553e-08  1.1260017388030933e-08  1.1771840706942801e-08  1.1396125675755203e-08  1.0177361583130021e-08  8.3588322255586683e-09  6.2980823896530369e-09  4.3445610770185321e-09  2.7393140941294568e-09  1.5765470923820156e-09  8.2728014455534894e-10  3.9542989433842802e-10  1.7203273321218294e-10  6.8073880983060286e-11  2.4486140127166416e-11  8.0021089329747900e-12  2.3748258677057609e-12  6.3976586437322466e-13  1.5638933258662042e-13  3.4676710601205256e-14  6.9722626426003653e-15  1.2708558438858711e-15  2.0998025181970094e-16  3.1492133577865564e-17  4.3393645114524213e-18  6.0458959739416343e-19  1.4014254394227095e-19  8.7927219573336863e-20  8.2620665155830035e-20  8.2133205102719017e-20  8.2092735064579278e-20  8.2089698715675428e-20  8.2089492866702819e-20  8.2089480257676391e-20  8.2089479559910876e-20  8.2089479525029420e-20  8.2089479523454322e-20  8.2089479523390093e-20  8.2089479523387697e-20  8.2089479523387637e-20  8.2089479523387649e-20  8.2089479523387637e-20  8.2089479523387697e-20  6.2014069262332009e-12  9.6478947738704581e-12  1.5525520431239147e-11  2.4927404136280231e-11  3.9959976710203130e-11  6.3947550204896170e-11  1.0214617254507216e-10  1.6284413296225043e-10  2.5907567707804227e-10  4.1127632195834487e-10  6.5136677522270204e-10  1.0289474593944838e-09  1.6204366212342760e-09  2.5418189635812422e-09  3.9645328623473393e-09  6.1307691820905005e-09  9.3579213167014216e-09  1.4012693697169750e-08  2.0428793429015028e-08  2.8750014727313953e-08  3.8715957281887784e-08  4.9469351538758318e-08  5.9519261676500848e-08  6.6984099554936628e-08  7.0121466988155524e-08  6.7965911457242979e-08  6.0765539125766815e-08  4.9960138497411207e-08  3.7680396956852884e-08  2.6017157897180912e-08  1.6418888431719849e-08  9.4575918661552633e-09  4.9668777732469233e-09  2.3759887930380958e-09  1.0344690188935833e-09  4.0964367523654334e-10  1.4745289133215496e-10  4.8220569449195412e-11  1.4319963416547928e-11  3.8601159349604501e-12  9.4415186724902629e-13  2.0946595149514521e-13  4.2137887417767633e-14  7.6840117173276143e-15  1.2698380593057161e-15  1.9017287651406154e-16  2.5856543019698424e-17  3.2465073702158048e-18  4.3378514260740679e-19  1.1746528228424735e-19  8.5309165940168181e-20  8.2354570867434887e-20  8.2109220296452671e-20  8.2090808866199558e-20  8.2089560458646086e-20  8.2089483977864698e-20  8.2089479744978107e-20  8.2089479533349630e-20  8.2089479523792323e-20  8.2089479523402491e-20  8.2089479523388131e-20  8.2089479523387661e-20  8.2089479523387661e-20  8.2089479523387685e-20  8.2089479523387721e-20  3.3767336047736900e-11  5.1799006168099644e-11  8.3351375351334316e-11  1.3374649158285734e-10  2.1426521096951654e-10  3.4266749171494740e-10  5.4703245741909518e-10  8.7164276924773448e-10  1.3861608288812596e-09  2.1998693515876015e-09  3.4836169293198803e-09  5.5031844691873193e-09  8.6686454129950000e-09  1.3603462102078767e-08  2.1230991042419814e-08  3.2858537263398346e-08  5.0203710262271660e-08  7.5257548744950958e-08  1.0984248155697503e-07  1.5476473321002474e-07  2.0865171749566458e-07  2.6689976564089920e-07  3.2145997054632113e-07  3.6213875438109020e-07  3.7946011365363650e-07  3.6812778143027977e-07  3.2941270621654514e-07  2.7106160222613253e-07  2.0460169513601112e-07  1.4138153809663193e-07  8.9290773406290708e-08  5.1471286010710550e-08  2.7050888164929305e-08  1.2949352881489608e-08  5.6418115170218364e-09  2.2356102513616642e-09  8.0523500056496484e-10  2.6349432164374560e-10  7.8296024234240239e-11  2.1117647407609502e-11  5.1679956607867830e-12  1.1471381512643557e-12  2.3087819166280045e-13  4.2120083665282814e-14  6.9632151658026080e-15  1.0429034131405641e-15  1.4152706982072526e-16  1.7453138385652820e-17  2.0132507466242158e-18  2.7638502569313192e-19  9.9776781447045828e-20  8.3546019872510972e-20  8.2197961818976594e-20  8.2096785693428939e-20  8.2089924401217646e-20  8.2089504010871084e-20  8.2089480741646179e-20  8.2089479578161530e-20  8.2089479525612977e-20  8.2089479523469321e-20  8.2089479523390382e-20  8.2089479523387721e-20  8.2089479523387661e-20  8.2089479523387661e-20  8.2089479523387733e-20  1.7092676843929657e-10  2.5845880048506764e-10  4.1533552955117984e-10  6.6528659213334522e-10  1.0639806789400351e-09  1.6987481273647249e-09  2.7075017035960843e-09  4.3075072710275744e-09  6.8402496046050258e-09  1.0841065182973308e-08  1.7146493941031365e-08  2.7057620525288254e-08  4.2581978801503394e-08  6.6772702927631007e-08  1.0415410742998843e-07  1.6113714235514615e-07  2.4615453056679076e-07  3.6899777472416267e-07  5.3865721917242897e-07  7.5916644806579902e-07  1.0238863033322936e-06  1.3103089648907319e-06  1.5789576826315129e-06  1.7797237417224729e-06  1.8659033706442310e-06  1.8112372302808646e-06  1.6217238653371222e-06  1.3352691741031569e-06  1.0085035161673508e-06  6.9731688004303267e-07  4.4067065939862651e-07  2.5418054081418323e-07  1.3366787266915713e-07  6.4026403692784661e-08  2.7912018248815102e-08  1.1066880915651570e-08  3.9884291007578027e-09  1.3058490095603255e-09  3.8823534390967130e-10  1.0476701984902124e-10  2.5651564271482572e-11  5.6964994881045643e-12  1.1469986588831450e-12  2.0933546236709181e-13  3.4619430383356067e-14  5.1865229719570842e-15  7.0376597350245045e-16  8.6525494282241293e-17  9.6943514550157612e-18  1.0493804411122139e-18  1.7015986089943373e-19  8.9343063538485582e-20  8.2629785789025854e-20  8.2125872092209520e-20  8.2091695668352827e-20  8.2089601515236441e-20  8.2089485592881997e-20  8.2089479796293451e-20  8.2089479534476022e-20  8.2089479523794731e-20  8.2089479523401179e-20  8.2089479523388083e-20  8.2089479523387697e-20  8.2089479523387721e-20  8.2089479523387733e-20  8.0390142129294979e-10  1.1984948938163615e-09  1.9215289185275505e-09  3.0696585634314050e-09  4.8962221003060338e-09  7.7967558099661683e-09  1.2394451807359825e-08  1.9668847455893676e-08  3.1156217230914242e-08  4.9260126728801871e-08  7.7729627633997218e-08  1.2238617734243356e-07  1.9219950694892921e-07  3.0079549202572053e-07  4.6834823588222059e-07  7.2342781390142466e-07  1.1036031168066517e-06  1.6524966005812025e-06  2.4101781218606939e-06  3.3946671831014834e-06  4.5764615379331684e-06  5.8553359668372555e-06  7.0553376519897414e-06  7.9529101338757549e-06  8.3394044471914302e-06  8.0971250528132539e-06  7.2522343296407890e-06  5.9734724208851630e-06  4.5135398495978309e-06  3.1222408128556195e-06  1.9740478945822021e-06  1.1392028900154102e-06  5.9938547173431410e-07  2.8725089578702299e-07  1.2529019793685328e-07  4.9701907416077517e-08  1.7921243056639293e-08  5.8704627444644743e-09  1.7461461480589130e-09  4.7141974221040970e-10  1.1547415896441891e-10  2.5654034734968456e-11  5.1674345411114481e-12  9.4342234843085471e-13  1.5607027446386066e-13  2.3388120856078212e-14  3.1741097488343695e-15  3.9007714863991766e-16  4.3456404105974989e-17  4.4475504130355313e-18  4.7960653854936412e-19  1.1483255906923314e-19  8.4528622875889578e-20  8.2253777274452129e-20  8.2099484861137728e-20  8.2090030298595551e-20  8.2089506926745848e-20  8.2089480755561781e-20  8.2089479573453209e-20  8.2089479525225793e-20  8.2089479523448641e-20  8.2089479523389479e-20  8.2089479523387721e-20  8.2089479523387685e-20  8.2089479523387685e-20  3.5157918311829344e-09  5.1693180286687932e-09  8.2614636124610301e-09  1.3150426221006055e-08  2.0900315019971991e-08  3.3162495470529759e-08  5.2529704681400187e-08  8.3062885676930957e-08  1.3110914764347724e-07  2.0656547133009206e-07  3.2481894530573628e-07  5.0968829277913082e-07  7.9776681276484683e-07  1.2444953024551557e-06  1.9317637108907379e-06  2.9753041723800819e-06  4.5270273904556381e-06  6.7630139605306612e-06  9.8446145488115528e-06  1.3843675480256806e-05  1.8639643346640354e-05  2.3825870383867484e-05  2.8689448990082800e-05  3.2324955014864402e-05  3.3887311122615155e-05  3.2899606053125827e-05  2.9467554958101033e-05  2.4274788996935198e-05  1.8345825097382919e-05  1.2694203242222969e-05  8.0285559639078458e-06  4.6348749236236365e-06  2.4395652614165522e-06  1.1696211496954940e-06  5.1036805604052902e-07  2.0254616886029258e-07  7.3063937400434569e-08  2.3943533618855254e-08  7.1247941848543104e-09  1.9242799716938256e-09  4.7152560757184338e-10  1.0479144989958653e-10  2.1114619722872613e-11  3.8560252546434298e-12  6.3806614770942028e-13  9.5639586924979469e-14  1.2981962231085374e-14  1.5954279138570594e-15  1.7753490706284174e-16  1.79437212883