<?xml version="1.0"?>
<VTKFile type="UnstructuredGrid"  version="0.1"  >
<UnstructuredGrid>
<Piece  NumberOfPoints="4225" NumberOfCells="8192">
<Points>
<DataArray  type="Float64"  NumberOfComponents="3"  format="ascii">0 0 0  0.015625 0 0  0.03125 0 0  0.046875 0 0  0.0625 0 0  0.078125 0 0  0.09375 0 0  0.109375 0 0  0.125 0 0  0.140625 0 0  0.15625 0 0  0.171875 0 0  0.1875 0 0  0.203125 0 0  0.21875 0 0  0.234375 0 0  0.25 0 0  0.265625 0 0  0.28125 0 0  0.296875 0 0  0.3125 0 0  0.328125 0 0  0.34375 0 0  0.359375 0 0  0.375 0 0  0.390625 0 0  0.40625 0 0  0.421875 0 0  0.4375 0 0  0.453125 0 0  0.46875 0 0  0.484375 0 0  0.5 0 0  0.515625 0 0  0.53125 0 0  0.546875 0 0  0.5625 0 0  0.578125 0 0  0.59375 0 0  0.609375 0 0  0.625 0 0  0.640625 0 0  0.65625 0 0  0.671875 0 0  0.6875 0 0  0.703125 0 0  0.71875 0 0  0.734375 0 0  0.75 0 0  0.765625 0 0  0.78125 0 0  0.796875 0 0  0.8125 0 0  0.828125 0 0  0.84375 0 0  0.859375 0 0  0.875 0 0  0.890625 0 0  0.90625 0 0  0.921875 0 0  0.9375 0 0  0.953125 0 0  0.96875 0 0  0.984375 0 0  1 0 0  0 0.015625 0  0.015625 0.015625 0  0.03125 0.015625 0  0.046875 0.015625 0  0.0625 0.015625 0  0.078125 0.015625 0  0.09375 0.015625 0  0.109375 0.015625 0  0.125 0.015625 0  0.140625 0.015625 0  0.15625 0.015625 0  0.171875 0.015625 0  0.1875 0.015625 0  0.203125 0.015625 0  0.21875 0.015625 0  0.234375 0.015625 0  0.25 0.015625 0  0.265625 0.015625 0  0.28125 0.015625 0  0.296875 0.015625 0  0.3125 0.015625 0  0.328125 0.015625 0  0.34375 0.015625 0  0.359375 0.015625 0  0.375 0.015625 0  0.390625 0.015625 0  0.40625 0.015625 0  0.421875 0.015625 0  0.4375 0.015625 0  0.453125 0.015625 0  0.46875 0.015625 0  0.484375 0.015625 0  0.5 0.015625 0  0.515625 0.015625 0  0.53125 0.015625 0  0.546875 0.015625 0  0.5625 0.015625 0  0.578125 0.015625 0  0.59375 0.015625 0  0.609375 0.015625 0  0.625 0.015625 0  0.640625 0.015625 0  0.65625 0.015625 0  0.671875 0.015625 0  0.6875 0.015625 0  0.703125 0.015625 0  0.71875 0.015625 0  0.734375 0.015625 0  0.75 0.015625 0  0.765625 0.015625 0  0.78125 0.015625 0  0.796875 0.015625 0  0.8125 0.015625 0  0.828125 0.015625 0  0.84375 0.015625 0  0.859375 0.015625 0  0.875 0.015625 0  0.890625 0.015625 0  0.90625 0.015625 0  0.921875 0.015625 0  0.9375 0.015625 0  0.953125 0.015625 0  0.96875 0.015625 0  0.984375 0.015625 0  1 0.015625 0  0 0.03125 0  0.015625 0.03125 0  0.03125 0.03125 0  0.046875 0.03125 0  0.0625 0.03125 0  0.078125 0.03125 0  0.09375 0.03125 0  0.109375 0.03125 0  0.125 0.03125 0  0.140625 0.03125 0  0.15625 0.03125 0  0.171875 0.03125 0  0.1875 0.03125 0  0.203125 0.03125 0  0.21875 0.03125 0  0.234375 0.03125 0  0.25 0.03125 0  0.265625 0.03125 0  0.28125 0.03125 0  0.296875 0.03125 0  0.3125 0.03125 0  0.328125 0.03125 0  0.34375 0.03125 0  0.359375 0.03125 0  0.375 0.03125 0  0.390625 0.03125 0  0.40625 0.03125 0  0.421875 0.03125 0  0.4375 0.03125 0  0.453125 0.03125 0  0.46875 0.03125 0  0.484375 0.03125 0  0.5 0.03125 0  0.515625 0.03125 0  0.53125 0.03125 0  0.546875 0.03125 0  0.5625 0.03125 0  0.578125 0.03125 0  0.59375 0.03125 0  0.609375 0.03125 0  0.625 0.03125 0  0.640625 0.03125 0  0.65625 0.03125 0  0.671875 0.03125 0  0.6875 0.03125 0  0.703125 0.03125 0  0.71875 0.03125 0  0.734375 0.03125 0  0.75 0.03125 0  0.765625 0.03125 0  0.78125 0.03125 0  0.796875 0.03125 0  0.8125 0.03125 0  0.828125 0.03125 0  0.84375 0.03125 0  0.859375 0.03125 0  0.875 0.03125 0  0.890625 0.03125 0  0.90625 0.03125 0  0.921875 0.03125 0  0.9375 0.03125 0  0.953125 0.03125 0  0.96875 0.03125 0  0.984375 0.03125 0  1 0.03125 0  0 0.046875 0  0.015625 0.046875 0  0.03125 0.046875 0  0.046875 0.046875 0  0.0625 0.046875 0  0.078125 0.046875 0  0.09375 0.046875 0  0.109375 0.046875 0  0.125 0.046875 0  0.140625 0.046875 0  0.15625 0.046875 0  0.171875 0.046875 0  0.1875 0.046875 0  0.203125 0.046875 0  0.21875 0.046875 0  0.234375 0.046875 0  0.25 0.046875 0  0.265625 0.046875 0  0.28125 0.046875 0  0.296875 0.046875 0  0.3125 0.046875 0  0.328125 0.046875 0  0.34375 0.046875 0  0.359375 0.046875 0  0.375 0.046875 0  0.390625 0.046875 0  0.40625 0.046875 0  0.421875 0.046875 0  0.4375 0.046875 0  0.453125 0.046875 0  0.46875 0.046875 0  0.484375 0.046875 0  0.5 0.046875 0  0.515625 0.046875 0  0.53125 0.046875 0  0.546875 0.046875 0  0.5625 0.046875 0  0.578125 0.046875 0  0.59375 0.046875 0  0.609375 0.046875 0  0.625 0.046875 0  0.640625 0.046875 0  0.65625 0.046875 0  0.671875 0.046875 0  0.6875 0.046875 0  0.703125 0.046875 0  0.71875 0.046875 0  0.734375 0.046875 0  0.75 0.046875 0  0.765625 0.046875 0  0.78125 0.046875 0  0.796875 0.046875 0  0.8125 0.046875 0  0.828125 0.046875 0  0.84375 0.046875 0  0.859375 0.046875 0  0.875 0.046875 0  0.890625 0.046875 0  0.90625 0.046875 0  0.921875 0.046875 0  0.9375 0.046875 0  0.953125 0.046875 0  0.96875 0.046875 0  0.984375 0.046875 0  1 0.046875 0  0 0.0625 0  0.015625 0.0625 0  0.03125 0.0625 0  0.046875 0.0625 0  0.0625 0.0625 0  0.078125 0.0625 0  0.09375 0.0625 0  0.109375 0.0625 0  0.125 0.0625 0  0.140625 0.0625 0  0.15625 0.0625 0  0.171875 0.0625 0  0.1875 0.0625 0  0.203125 0.0625 0  0.21875 0.0625 0  0.234375 0.0625 0  0.25 0.0625 0  0.265625 0.0625 0  0.28125 0.0625 0  0.296875 0.0625 0  0.3125 0.0625 0  0.328125 0.0625 0  0.34375 0.0625 0  0.359375 0.0625 0  0.375 0.0625 0  0.390625 0.0625 0  0.40625 0.0625 0  0.421875 0.0625 0  0.4375 0.0625 0  0.453125 0.0625 0  0.46875 0.0625 0  0.484375 0.0625 0  0.5 0.0625 0  0.515625 0.0625 0  0.53125 0.0625 0  0.546875 0.0625 0  0.5625 0.0625 0  0.578125 0.0625 0  0.59375 0.0625 0  0.609375 0.0625 0  0.625 0.0625 0  0.640625 0.0625 0  0.65625 0.0625 0  0.671875 0.0625 0  0.6875 0.0625 0  0.703125 0.0625 0  0.71875 0.0625 0  0.734375 0.0625 0  0.75 0.0625 0  0.765625 0.0625 0  0.78125 0.0625 0  0.796875 0.0625 0  0.8125 0.0625 0  0.828125 0.0625 0  0.84375 0.0625 0  0.859375 0.0625 0  0.875 0.0625 0  0.890625 0.0625 0  0.90625 0.0625 0  0.921875 0.0625 0  0.9375 0.0625 0  0.953125 0.0625 0  0.96875 0.0625 0  0.984375 0.0625 0  1 0.0625 0  0 0.078125 0  0.015625 0.078125 0  0.03125 0.078125 0  0.046875 0.078125 0  0.0625 0.078125 0  0.078125 0.078125 0  0.09375 0.078125 0  0.109375 0.078125 0  0.125 0.078125 0  0.140625 0.078125 0  0.15625 0.078125 0  0.171875 0.078125 0  0.1875 0.078125 0  0.203125 0.078125 0  0.21875 0.078125 0  0.234375 0.078125 0  0.25 0.078125 0  0.265625 0.078125 0  0.28125 0.078125 0  0.296875 0.078125 0  0.3125 0.078125 0  0.328125 0.078125 0  0.34375 0.078125 0  0.359375 0.078125 0  0.375 0.078125 0  0.390625 0.078125 0  0.40625 0.078125 0  0.421875 0.078125 0  0.4375 0.078125 0  0.453125 0.078125 0  0.46875 0.078125 0  0.484375 0.078125 0  0.5 0.078125 0  0.515625 0.078125 0  0.53125 0.078125 0  0.546875 0.078125 0  0.5625 0.078125 0  0.578125 0.078125 0  0.59375 0.078125 0  0.609375 0.078125 0  0.625 0.078125 0  0.640625 0.078125 0  0.65625 0.078125 0  0.671875 0.078125 0  0.6875 0.078125 0  0.703125 0.078125 0  0.71875 0.078125 0  0.734375 0.078125 0  0.75 0.078125 0  0.765625 0.078125 0  0.78125 0.078125 0  0.796875 0.078125 0  0.8125 0.078125 0  0.828125 0.078125 0  0.84375 0.078125 0  0.859375 0.078125 0  0.875 0.078125 0  0.890625 0.078125 0  0.90625 0.078125 0  0.921875 0.078125 0  0.9375 0.078125 0  0.953125 0.078125 0  0.96875 0.078125 0  0.984375 0.078125 0  1 0.078125 0  0 0.09375 0  0.015625 0.09375 0  0.03125 0.09375 0  0.046875 0.09375 0  0.0625 0.09375 0  0.078125 0.09375 0  0.09375 0.09375 0  0.109375 0.09375 0  0.125 0.09375 0  0.140625 0.09375 0  0.15625 0.09375 0  0.171875 0.09375 0  0.1875 0.09375 0  0.203125 0.09375 0  0.21875 0.09375 0  0.234375 0.09375 0  0.25 0.09375 0  0.265625 0.09375 0  0.28125 0.09375 0  0.296875 0.09375 0  0.3125 0.09375 0  0.328125 0.09375 0  0.34375 0.09375 0  0.359375 0.09375 0  0.375 0.09375 0  0.390625 0.09375 0  0.40625 0.09375 0  0.421875 0.09375 0  0.4375 0.09375 0  0.453125 0.09375 0  0.46875 0.09375 0  0.484375 0.09375 0  0.5 0.09375 0  0.515625 0.09375 0  0.53125 0.09375 0  0.546875 0.09375 0  0.5625 0.09375 0  0.578125 0.09375 0  0.59375 0.09375 0  0.609375 0.09375 0  0.625 0.09375 0  0.640625 0.09375 0  0.65625 0.09375 0  0.671875 0.09375 0  0.6875 0.09375 0  0.703125 0.09375 0  0.71875 0.09375 0  0.734375 0.09375 0  0.75 0.09375 0  0.765625 0.09375 0  0.78125 0.09375 0  0.796875 0.09375 0  0.8125 0.09375 0  0.828125 0.09375 0  0.84375 0.09375 0  0.859375 0.09375 0  0.875 0.09375 0  0.890625 0.09375 0  0.90625 0.09375 0  0.921875 0.09375 0  0.9375 0.09375 0  0.953125 0.09375 0  0.96875 0.09375 0  0.984375 0.09375 0  1 0.09375 0  0 0.109375 0  0.015625 0.109375 0  0.03125 0.109375 0  0.046875 0.109375 0  0.0625 0.109375 0  0.078125 0.109375 0  0.09375 0.109375 0  0.109375 0.109375 0  0.125 0.109375 0  0.140625 0.109375 0  0.15625 0.109375 0  0.171875 0.109375 0  0.1875 0.109375 0  0.203125 0.109375 0  0.21875 0.109375 0  0.234375 0.109375 0  0.25 0.109375 0  0.265625 0.109375 0  0.28125 0.109375 0  0.296875 0.109375 0  0.3125 0.109375 0  0.328125 0.109375 0  0.34375 0.109375 0  0.359375 0.109375 0  0.375 0.109375 0  0.390625 0.109375 0  0.40625 0.109375 0  0.421875 0.109375 0  0.4375 0.109375 0  0.453125 0.109375 0  0.46875 0.109375 0  0.484375 0.109375 0  0.5 0.109375 0  0.515625 0.109375 0  0.53125 0.109375 0  0.546875 0.109375 0  0.5625 0.109375 0  0.578125 0.109375 0  0.59375 0.109375 0  0.609375 0.109375 0  0.625 0.109375 0  0.640625 0.109375 0  0.65625 0.109375 0  0.671875 0.109375 0  0.6875 0.109375 0  0.703125 0.109375 0  0.71875 0.109375 0  0.734375 0.109375 0  0.75 0.109375 0  0.765625 0.109375 0  0.78125 0.109375 0  0.796875 0.109375 0  0.8125 0.109375 0  0.828125 0.109375 0  0.84375 0.109375 0  0.859375 0.109375 0  0.875 0.109375 0  0.890625 0.109375 0  0.90625 0.109375 0  0.921875 0.109375 0  0.9375 0.109375 0  0.953125 0.109375 0  0.96875 0.109375 0  0.984375 0.109375 0  1 0.109375 0  0 0.125 0  0.015625 0.125 0  0.03125 0.125 0  0.046875 0.125 0  0.0625 0.125 0  0.078125 0.125 0  0.09375 0.125 0  0.109375 0.125 0  0.125 0.12
[...]
<PointData  Scalars="f_14444"> 
<DataArray  type="Float64"  Name="f_14444"  format="ascii">2.6158963109097167e-12  2.6728229986824334e-12  2.6385731533496153e-12  2.5889685377701072e-12  2.5241885842663563e-12  2.4443386403165069e-12  2.3498197402302643e-12  2.2413799335300685e-12  2.1201270913011947e-12  1.9875291984904766e-12  1.8453988048577449e-12  1.6958599105237514e-12  1.5412963796037119e-12  1.3842821365618706e-12  1.2274947977672667e-12  1.0736159547593435e-12  9.2522297180676040e-13  7.8467882309121982e-13  6.5402810891962073e-13  5.3490873255342063e-13  4.2848910844814722e-13  3.3543893752396797e-13  2.5593631353924875e-13  1.8970572608453177e-13  1.3607409289725008e-13  9.4030979587076671e-14  6.2287563809159731e-14  3.9341971104307415e-14  2.3565318014306849e-14  1.3314771165481072e-14  7.0605840051752274e-15  3.4976500541538097e-15  1.6118839052659125e-15  6.8853578598504678e-16  2.7175938900683892e-16  9.8842358619565943e-17  3.3055203280998214e-17  1.0147580700648076e-17  2.8583621877776155e-18  7.4146585158730799e-19  1.8094004945186144e-19  4.5728856101559233e-20  1.6035298622876615e-20  1.0101793747489153e-20  9.0234119300812535e-21  8.8452162734118847e-21  8.8184511609033631e-21  8.8147977241718260e-21  8.8143445822291179e-21  8.8142935162561733e-21  8.8142882876902899e-21  8.8142878012819385e-21  8.8142877601643980e-21  8.8142877570055404e-21  8.8142877567849401e-21  8.8142877567709305e-21  8.8142877567701210e-21  8.8142877567700789e-21  8.8142877567700759e-21  8.8142877567700744e-21  8.8142877567700729e-21  8.8142877567700729e-21  8.8142877567700684e-21  8.8142877567700684e-21  8.8142877567700699e-21  3.2845137441573679e-12  3.4372461071841758e-12  3.4438684948953928e-12  3.4443501345349950e-12  3.4259657198436696e-12  3.3880872187113998e-12  3.3298264309417976e-12  3.2506665999717603e-12  3.1504984971667956e-12  3.0296811426576702e-12  2.8890904341426726e-12  2.7301522791709804e-12  2.5548549133781118e-12  2.3657353495227383e-12  2.1658354391510256e-12  1.9586239455761567e-12  1.7478824659569411e-12  1.5375556380163151e-12  1.3315711931894375e-12  1.1336444981699202e-12  9.4709431176339246e-13  7.7470505317470325e-13  6.1866419537038210e-13  4.8057328163146245e-13  3.6148721871716361e-13  2.6191108412067423e-13  1.8171060606775408e-13  1.1997029237970361e-13  7.4909528871794082e-14  4.3973992903849589e-14  2.4137129833311827e-14  1.2328196836462132e-14  5.8344954058878193e-15  2.5493244799355475e-15  1.0252561313673809e-15  3.7853193606350136e-16  1.2802542862610746e-16  3.9595480870496970e-17  1.1184123160559163e-17  2.8849921975738088e-18  6.8289908388827038e-19  1.5253407590533341e-19  3.6664811322645403e-20  1.3715648323184344e-20  9.5970855534896564e-21  8.9276685148068727e-21  8.8291714483208949e-21  8.8160574579268657e-21  8.8144782368817730e-21  8.8143063049940842e-21  8.8142893897992258e-21  8.8142878866809178e-21  8.8142877661015811e-21  8.8142877573748119e-21  8.8142877568054062e-21  8.8142877567719371e-21  8.8142877567701631e-21  8.8142877567700804e-21  8.8142877567700789e-21  8.8142877567700759e-21  8.8142877567700744e-21  8.8142877567700714e-21  8.8142877567700714e-21  8.8142877567700714e-21  8.8142877567700699e-21  7.6431119196244339e-12  8.4524049303309870e-12  8.8351047534003603e-12  9.2289974508901042e-12  9.5908285439268765e-12  9.9137981634031530e-12  1.0187947928854957e-11  1.0403330308530671e-11  1.0550177008015616e-11  1.0619327186733704e-11  1.0602699307419182e-11  1.0493801080433310e-11  1.0288250249952883e-11  9.9842701864414002e-12  9.5831134904724852e-12  9.0893550362318068e-12  8.5109855245196287e-12  7.8592369403975153e-12  7.1481018674564752e-12  6.3935921252069648e-12  5.6129161347374277e-12  4.8238705754170833e-12  4.0447032169768180e-12  3.2943993299277211e-12  2.5928595478524627e-12  1.9601304089500400e-12  1.4141370377440334e-12  9.6729442692940983e-13  6.2337961205078044e-13  3.7631497881321223e-13  2.1169328976077209e-13  1.1047535285676664e-13  5.3279332526508091e-14  2.3669036658335477e-14  9.6594425870662399e-15  3.6131653591445848e-15  1.2364136793214252e-15  3.8644724312308830e-16  1.1017795132452917e-16  2.8624311159565248e-17  6.7739555658939779e-18  1.4633248102301693e-18  2.9299761439733576e-19  5.9238391400558366e-20  1.6934812884399881e-20  1.0000635891203712e-20  8.9714403483345414e-21  8.8331560300979740e-21  8.8163402529960683e-21  8.8144899784070293e-21  8.8143057968930255e-21  8.8142892135875460e-21  8.8142878632400452e-21  8.8142877638109056e-21  8.8142877571913234e-21  8.8142877567928801e-21  8.8142877567711953e-21  8.8142877567701300e-21  8.8142877567700819e-21  8.8142877567700789e-21  8.8142877567700759e-21  8.8142877567700744e-21  8.8142877567700699e-21  8.8142877567700684e-21  8.8142877567700623e-21  2.8644258504845463e-11  3.2559493129908192e-11  3.5111664976813469e-11  3.7799770548476992e-11  4.0469885134893766e-11  4.3083656936516440e-11  4.5587183844123698e-11  4.7921593610816508e-11  5.0023501876571015e-11  5.1826732773030685e-11  5.3264503473246598e-11  5.4272117895534028e-11  5.4790105397696711e-11  5.4767675590349359e-11  5.4166262596715356e-11  5.2962798187460449e-11  5.1152200029490491e-11  4.8748478012579582e-11  4.5784050476273220e-11  4.2307572208669817e-11  3.8381814033719030e-11  3.4084236158462676e-11  2.9512463037361464e-11  2.4793697793710911e-11  2.0091987834665339e-11  1.5603817358426791e-11  1.1535222796124059e-11  8.0633285399697611e-12  5.2964082728774835e-12  3.2507137490783687e-12  1.8550802068288387e-12  9.8016041228747433e-13  4.7778431612662948e-13  2.1422458576518225e-13  8.8130756983774086e-14  3.3197424525007881e-14  1.1429986788124787e-14  3.5918462883341609e-15  1.0289281903651478e-15  2.6840805684491202e-16  6.3706257873280746e-17  1.3751151539377620e-17  2.7021858053528515e-18  4.8806495947548236e-19  8.6193167982542611e-20  2.0145123910308552e-20  1.0318428475083524e-20  8.9952246321561091e-21  8.8340037588617551e-21  8.8162332030053013e-21  8.8144615356392559e-21  8.8143018053765055e-21  8.8142887843628172e-21  8.8142878247631172e-21  8.8142877608389941e-21  8.8142877569902714e-21  8.8142877567808551e-21  8.8142877567705574e-21  8.8142877567700999e-21  8.8142877567700804e-21  8.8142877567700774e-21  8.8142877567700744e-21  8.8142877567700714e-21  8.8142877567700684e-21  8.8142877567700653e-21  1.2071409806857057e-10  1.3832328984390869e-10  1.5205129875827522e-10  1.6675292621658847e-10  1.8191167677732184e-10  1.9737267585795376e-10  2.1290922837724716e-10  2.2825447764689164e-10  2.4310011881704620e-10  2.5710004831198714e-10  2.6987659227438853e-10  2.8102987724007983e-10  2.9015050706441497e-10  2.9683538171549626e-10  3.0070586585042803e-10  3.0142648835271933e-10  2.9872102213453324e-10  2.9238191704516656e-10  2.8227047970869828e-10  2.6831128335435784e-10  2.5049530264946401e-10  2.2891627411585789e-10  2.0386073115621104e-10  1.7594226010033352e-10  1.4622084984019641e-10  1.1621207157341289e-10  8.7711214408068491e-11  6.2445853927880629e-11  4.1679429851434593e-11  2.5938340146489019e-11  1.4980410335327873e-11  7.9972040916924860e-12  3.9331362816723569e-12  1.7771432437272542e-12  7.3601806255453295e-13  2.7887192659501097e-13  9.6510730153707772e-14  3.0466000896263897e-14  8.7624984243234029e-15  2.2939760465457585e-15  5.4617813272664987e-16  1.1818433830432868e-16  2.3231149578689993e-17  4.1508303328774861e-18  6.7903952598107304e-19  1.0715437224600806e-19  2.1892785122760016e-20  1.0390214110701400e-20  8.9862816477829440e-21  8.8312839259433135e-21  8.8158080403744809e-21  8.8144108177660891e-21  8.8142967690938653e-21  8.8142883537822683e-21  8.8142877925368790e-21  8.8142877587076577e-21  8.8142877568649836e-21  8.8142877567742858e-21  8.8142877567702519e-21  8.8142877567700879e-21  8.8142877567700789e-21  8.8142877567700774e-21  8.8142877567700759e-21  8.8142877567700714e-21  8.8142877567700699e-21  5.0125914759839072e-10  5.7609647917545503e-10  6.4284566587306311e-10  7.1543965738241538e-10  7.9242195494542351e-10  8.7335285019261321e-10  9.5749073414284571e-10  1.0438699687920788e-09  1.1312758570620520e-09  1.2182353633737129e-09  1.3030175571192960e-09  1.3836474079436384e-09  1.4579354356235369e-09  1.5235242723472713e-09  1.5779495442692950e-09  1.6187055284470456e-09  1.6432962930411760e-09  1.6492465018638085e-09  1.6340580314367579e-09  1.5951493764548831e-09  1.5299081098711788e-09  1.4360743597538502e-09  1.3126451090613251e-09  1.1612396955911392e-09  9.8743569425529530e-10  8.0124322892825748e-10  6.1600514971007798e-10  4.4571778227306831e-10  3.0170122511901069e-10  1.9004633061958492e-10  1.1090971001421581e-10  5.9742349640977912e-11  2.9610554350922203e-11  1.3469234020815739e-11  5.6110439757492792e-12  2.1368664972706008e-12  7.4284605226234700e-13  2.3543133236588149e-13  6.7953457360622139e-14  1.7846134409147157e-14  4.2610699868157863e-15  9.2434931322998590e-16  1.8207132887678619e-16  3.2550960527409980e-17  5.2847044894367074e-18  7.8430462732823378e-19  1.1211728470878975e-19  2.1280820285955159e-20  1.0176764229324722e-20  8.9491002741984088e-21  8.8263611330334154e-21  8.8152661548830046e-21  8.8143594854889370e-21  8.8142925131249225e-21  8.8142880419919319e-21  8.8142877722351850e-21  8.8142877575281896e-21  8.8142877568036788e-21  8.8142877567714315e-21  8.8142877567701315e-21  8.8142877567700774e-21  8.8142877567700804e-21  8.8142877567700774e-21  8.8142877567700759e-21  8.8142877567700774e-21  1.9938623295455546e-09  2.2955704742547883e-09  2.5959896243501187e-09  2.9274096007363783e-09  3.2871463426677935e-09  3.6748326491697541e-09  4.0890038636502799e-09  4.5272073070534821e-09  4.9858188048543352e-09  5.4598925880891181e-09  5.9430311206007014e-09  6.4272908870324487e-09  6.9031375042940408e-09  7.3594564165511816e-09  7.7836034406978004e-09  8.1614335357291818e-09  8.4771790834556445e-09  8.7130048251851647e-09  8.8481610702573688e-09  8.8580491151755545e-09  8.7142427955979176e-09  8.3872281027875879e-09  7.8534892592507981e-09  7.1067359596347787e-09  6.1697367248860220e-09  5.1003795363032923e-09  3.9860764380993133e-09  2.9256470227715138e-09  2.0049010353105577e-09  1.2763761199584029e-09  7.5169689529993654e-10  4.0809076999062644e-10  2.0363686498874435e-10  9.3174577590549506e-11  3.9013570243175677e-11  1.4924253787535353e-11  5.2086675686099761e-12  1.6565703403294418e-12  4.7963356368330528e-13  1.2631449250160032e-13  3.0235476345777569e-14  6.5737948429674011e-15  1.2974788650311144e-15  2.3235532907837419e-16  3.7742430206157382e-17  5.5638836633329891e-18  7.4987055244719022e-19  9.8363130861501208e-20  1.8613149820907562e-20  9.7849548391636738e-21  8.9013094999151435e-21  8.8213467561865133e-21  8.8148057479805585e-21  8.8143221348910716e-21  8.8142898200082763e-21  8.8142878687296317e-21  8.8142877622625121e-21  8.8142877570136503e-21  8.8142877567798485e-21  8.8142877567704370e-21  8.8142877567700894e-21  8.8142877567700789e-21  8.8142877567700789e-21  8.8142877567700759e-21  8.8142877567700834e-21  7.5548605407783853e-09  8.7093642949381021e-09  9.9707078721179931e-09  1.1380496879905554e-08  1.2941566651928933e-08  1.4659737739991849e-08  1.6537625914114957e-08  1.8574384498421882e-08  2.0764747691377243e-08  2.3098060403604359e-08  2.5557265987110449e-08  2.8117897896023871e-08  3.0747111321719256e-08  3.3402745308620067e-08  3.6032264393225761e-08  3.8571127306260094e-08  4.0939682231826385e-08  4.3037389285128189e-08  4.4733817484652890e-08  4.5858585793415501e-08  4.6197585127211562e-08  4.5508157175361304e-08  4.3565673089574422e-08  4.0242030488281228e-08  3.5593704915718895e-08  2.9916088924922943e-08  2.3721583994372077e-08  1.7630677663588905e-08  1.2213107023007153e-08  7.8475007484085416e-09  4.6584798672665575e-09  2.5463893789976131e-09  1.2781640301134309e-09  5.8782980288613610e-10  2.4723561979136054e-10  9.4949362949962946e-11  3.3252978219991122e-11  1.0608385821484690e-11  3.0799282233470249e-12  8.1311580308594315e-13  1.9506422255038703e-13  4.2495761493274984e-14  8.4026402443630023e-15  1.5072085819924835e-15  2.4515021495510855e-16  3.6147741444463605e-17  4.8358948710444887e-18  5.9279217347106753e-19  7.2784148121792231e-20  1.5157336627619296e-20  9.3834711615843274e-21  8.8604978412502609e-21  8.8176813611243690e-21  8.8145131524517754e-21  8.8143012936994221e-21  8.8142884918339965e-21  8.8142877928537125e-21  8.8142877583712459e-21  8.8142877568343071e-21  8.8142877567724111e-21  8.8142877567701601e-21  8.8142877567700879e-21  8.8142877567700834e-21  8.8142877567700819e-21  8.8142877567700894e-21  2.7233028500532665e-08  3.1425530459350463e-08  3.6384648370227558e-08  4.1993348279833351e-08  4.8312389952593116e-08  5.5395068159876982e-08  6.3288830783639768e-08  7.2032410382009501e-08  8.1651916333793948e-08  9.2156344083596804e-08  1.0353242409534926e-07  1.1573883990797821e-07  1.2869976420488700e-07  1.4229733982050976e-07  1.5636182236670811e-07  1.7065619080766835e-07  1.8484917289053670e-07  1.9846861430021093e-07  2.1083089766903494e-07  2.2095893784917514e-07  2.2753406405310364e-07  2.2896264098741675e-07  2.2364131019521597e-07  2.1043577663075775e-07  1.8924772452152470e-07  1.6140850122793683e-07  1.2962798030547063e-07  9.7407361600658293e-08  6.8114145872648832e-08  4.4120867989082043e-08  2.6373041753997135e-08  1.4501921773630951e-08  7.3168177064119716e-09  3.3801043833293714e-09  1.4272112092785909e-09  5.5000043419055873e-10  1.9320679278953948e-10  6.1803802805649754e-11  1.7986844644415406e-11  4.7589059182524786e-12  1.1438755400170622e-12  2.4963821892276959e-13  4.9439383370887517e-14  8.8809015334078264e-15  1.4463598276263299e-15  2.1348660950546890e-16  2.8554267170142809e-17  3.4656840859561817e-18  3.8783233472777772e-19  4.6428160537092708e-20  1.2192128219185861e-20  9.0887202680834609e-21  8.8344551757616901e-21  8.8156280714477742e-21  8.8143683017372640e-21  8.8142921328834413e-21  8.8142879717065224e-21  8.8142877663126435e-21  8.8142877571530215e-21  8.8142877567839772e-21  8.8142877567705453e-21  8.8142877567701030e-21  8.8142877567700894e-21  8.8142877567700894e-21  8.8142877567700939e-21  9.3350274612389283e-08  1.0779456250804498e-07  1.2609449496480812e-07  1.4701195714739223e-07  1.7093746338645878e-07  1.9818208891723686e-07  2.2906430957555497e-07  2.6389568354428012e-07  3.0296837541862894e-07  3.4653908933719408e-07  3.9480912700698255e-07  4.4789996909300769e-07  5.0582314289295238e-07  5.6844104622502019e-07  6.3540994186649548e-07  7.0608510581077482e-07  7.7935117087786803e-07  8.5332778864443638e-07  9.2491959989553276e-07  9.8927199446810751e-07  1.0393801275263107e-06  1.0663094835783158e-06  1.0605273775766380e-06  1.0144884121300656e-06  9.2584614063047444e-07  7.9987741733659405e-07  6.4957752017640570e-07  4.9280603446673955e-07  3.4743624692710666e-07  2.2663303801385584e-07  1.3628519709439902e-07  7.5328927495371363e-08  3.8177255204600488e-08  1.7705461622883873e-08  7.5015247327326972e-09  2.8995555335644139e-09  1.0212875287101033e-09  3.2746907496800633e-10  9.5505793597492509e-11  2.5316656045791405e-11  6.0956409240593052e-12  1.3323548627122403e-12  2.6423190893003506e-13  4.7524181758884027e-14  7.7486507027733700e-15  1.1448680488589750e-15  1.5323820187131740e-16  1.8580717095673203e-17  2.0466443577295037e-18  2.1119120761675889e-19  2.7000013015224400e-20  1.0292656468280482e-20  8.9229888085722619e-21  8.8215156251611676e-21  8.8147223159944119e-21  8.8143113776725964e-21  8.8142889174399511e-21  8.8142878083226795e-21  8.8142877588397344e-21  8.8142877568451886e-21  8.8142877567725585e-21  8.8142877567701677e-21  8.8142877567700954e-21  8.8142877567700969e-21  8.8142877567700984e-21  3.0422268681681823e-07  3.5142312491461449e-07  4.1490714860343229e-07  4.8815333128256643e-07  5.7304327773449364e-07  6.7104920742595635e-07  7.8378039047092462e-07  9.1292981449351308e-07  1.0602464976639777e-06  1.2274928316546396e-06  1.4163860276538579e-06  1.6285190778837135e-06  1.8652526734659824e-06  2.1275577194933054e-06  2.4157587208800604e-06  2.7290685234605451e-06  3.0647137095666804e-06  3.4163748108503121e-06  3.7717463749865631e-06  4.1094758218501463e-06  4.3966842565668838e-06  4.5893867351262675e-06  4.6384484396260391e-06  4.5020599118165732e-06  4.1619119992943820e-06  3.6361980841028411e-06  2.9816199265864026e-06  2.2808304083751632e-06  1.6194451957596385e-06  1.0627847669758527e-06  6.4243570432028741e-07  3.5669016051220267e-07  1.8147786276846501e-07  8.4450028289026105e-08  3.5886784444721546e-08  1.3907723879447104e-08  4.9100099564803898e-09  1.5776221513341235e-09  4.6096132242942948e-10  1.2239373119456109e-10  2.9513204296301302e-11  6.4594495525547409e-12  1.2825696032491287e-12  2.3092865178133136e-13  3.7688521766323486e-14  5.5733148841911744e-15  7.4652910171072769e-16  9.0552857566123976e-17  9.9501373297538543e-18  9.9664432091103102e-19  9.7626477764216577e-20  1.6037401678833390e-20  9.3456094695162125e-21  8.8496306294496697e-21  8.8164134340964502e-21  8.8144033397343297e-21  8.8142934381056059e-21  8.8142880091966957e-21  8.8142877669074368e-21  8.8142877571380549e-21  8.8142877567821686e-21  8.8142877567704550e-21  8.8142877567701075e-21  8.8142877567700999e-21  8.8142877567700984e-21  9.4248168873490796e-07  1.0887422860292357e-06  1.2960247367843312e-06  1.5371236004797854e-06  1.8197506552901081e-06  2.1499460814838122e-06  2.5345826262794791e-06  2.9812039158068178e-06  3.4980114369948709e-06  4.0938037879297567e-06  4.7778669836177553e-06  5.5597942274219927e-06  6.4491934307933100e-06  7.4551832635227288e-06  8.5854381371004426e-06  9.8442573432725268e-06  1.1228692719281410e-05  1.2721380213947158e-05  1.4279018398517359e-05  1.5817432421684371e-05  1.7198460652358622e-05  1.8229159332911161e-05  1.8685721786991956e-05  1.8367596824214346e-05  1.7170395553865388e-05  1.5147454542353586e-05  1.2524440739814332e-05  9.6491862983461704e-06  6.8929694446905102e-06  4.5472424505175853e-06  2.7610696073862501e-06  1.5389298795260035e-06  7.8561644693333501e-07  3.6665805511421897e-07  1.5621226682404575e-07  6.0677004871680914e-08  2.1464727363537865e-08  6.9091369962268817e-09  2.0219875817594098e-09  5.3764045348405740e-10  1.2980811777017118e-10  2.8442950510603914e-11  5.6532803147264706e-12  1.0188017365788969e-12  1.6640618416656552e-13  2.4625344736995990e-14  3.3005386465183679e-15  4.0054534961146645e-16  4.4007270215055215e-17  4.3826309600197123e-18  4.0219533584956480e-19  4.0818602877684061e-20  1.1169168433305623e-20  8.9709729133636318e-21  8.8237137856970963e-21  8.8148004112485603e-21  8.8143129612782989e-21  8.8142888768792360e-21  8.8142878017636557e-21  8.8142877584036527e-21  8.8142877568237040e-21  8.8142877567716873e-21  8.8142877567701376e-21  8.8142877567700984e-21  8.8142877567700999e-21  2.7755112041448476e-06  3.2052176514783852e-06  3.8428109692349502e-06  4.5894819697375980e-06  5.4733142418520330e-06  6.5164114319851430e-06  7.7446378976547735e-06  9.1872125298979692e-06  1.0876971233412602e-05  1.2850514491849012e-05  1.5148250014198502e-05  1.7814252728977973e-05  2.0895778642906535e-05  2.4442024592718867e-05  2.8501130211815502e-05  3.3113203019310794e-05  3.8295240930325155e-05  4.4012044983397844e-05  5.0128151456442370e-05  5.6343700377671480e-05  6.2134747341979017e-05  6.6740727575420947e-05  6.9251184058942653e-05  6.8817743999566791e-05  6.4949567104337426e-05  5.7772837014146336e-05  4.8108426306312727e-05  3.7289443941151942e-05  2.6776408889992431e-05  1.7742852274303530e-05  1.0814674534276801e-05  6.0477218219727470e-06  3.0962315936787921e-06  1.4486954190171359e-06  6.1857356393223749e-07  2.4073965966891304e-07  8.5309775769315549e-08  2.7501882694615671e-08  8.0594947148924970e-09  2.1455854999916691e-09  5.1858625434917381e-10  1.1373797398951128e-10  2.2625300589115895e-11  4.0803934951960239e-12  6.6689840409999725e-13  9.8744543166094058e-14  1.3241025684076682e-14  1.6075269925381241e-15  1.7665316485104629e-16  1.75737729573