<?xml version="1.0"?>
<VTKFile type="UnstructuredGrid"  version="0.1"  >
<UnstructuredGrid>
<Piece  NumberOfPoints="4225" NumberOfCells="8192">
<Points>
<DataArray  type="Float64"  NumberOfComponents="3"  format="ascii">0 0 0  0.015625 0 0  0.03125 0 0  0.046875 0 0  0.0625 0 0  0.078125 0 0  0.09375 0 0  0.109375 0 0  0.125 0 0  0.140625 0 0  0.15625 0 0  0.171875 0 0  0.1875 0 0  0.203125 0 0  0.21875 0 0  0.234375 0 0  0.25 0 0  0.265625 0 0  0.28125 0 0  0.296875 0 0  0.3125 0 0  0.328125 0 0  0.34375 0 0  0.359375 0 0  0.375 0 0  0.390625 0 0  0.40625 0 0  0.421875 0 0  0.4375 0 0  0.453125 0 0  0.46875 0 0  0.484375 0 0  0.5 0 0  0.515625 0 0  0.53125 0 0  0.546875 0 0  0.5625 0 0  0.578125 0 0  0.59375 0 0  0.609375 0 0  0.625 0 0  0.640625 0 0  0.65625 0 0  0.671875 0 0  0.6875 0 0  0.703125 0 0  0.71875 0 0  0.734375 0 0  0.75 0 0  0.765625 0 0  0.78125 0 0  0.796875 0 0  0.8125 0 0  0.828125 0 0  0.84375 0 0  0.859375 0 0  0.875 0 0  0.890625 0 0  0.90625 0 0  0.921875 0 0  0.9375 0 0  0.953125 0 0  0.96875 0 0  0.984375 0 0  1 0 0  0 0.015625 0  0.015625 0.015625 0  0.03125 0.015625 0  0.046875 0.015625 0  0.0625 0.015625 0  0.078125 0.015625 0  0.09375 0.015625 0  0.109375 0.015625 0  0.125 0.015625 0  0.140625 0.015625 0  0.15625 0.015625 0  0.171875 0.015625 0  0.1875 0.015625 0  0.203125 0.015625 0  0.21875 0.015625 0  0.234375 0.015625 0  0.25 0.015625 0  0.265625 0.015625 0  0.28125 0.015625 0  0.296875 0.015625 0  0.3125 0.015625 0  0.328125 0.015625 0  0.34375 0.015625 0  0.359375 0.015625 0  0.375 0.015625 0  0.390625 0.015625 0  0.40625 0.015625 0  0.421875 0.015625 0  0.4375 0.015625 0  0.453125 0.015625 0  0.46875 0.015625 0  0.484375 0.015625 0  0.5 0.015625 0  0.515625 0.015625 0  0.53125 0.015625 0  0.546875 0.015625 0  0.5625 0.015625 0  0.578125 0.015625 0  0.59375 0.015625 0  0.609375 0.015625 0  0.625 0.015625 0  0.640625 0.015625 0  0.65625 0.015625 0  0.671875 0.015625 0  0.6875 0.015625 0  0.703125 0.015625 0  0.71875 0.015625 0  0.734375 0.015625 0  0.75 0.015625 0  0.765625 0.015625 0  0.78125 0.015625 0  0.796875 0.015625 0  0.8125 0.015625 0  0.828125 0.015625 0  0.84375 0.015625 0  0.859375 0.015625 0  0.875 0.015625 0  0.890625 0.015625 0  0.90625 0.015625 0  0.921875 0.015625 0  0.9375 0.015625 0  0.953125 0.015625 0  0.96875 0.015625 0  0.984375 0.015625 0  1 0.015625 0  0 0.03125 0  0.015625 0.03125 0  0.03125 0.03125 0  0.046875 0.03125 0  0.0625 0.03125 0  0.078125 0.03125 0  0.09375 0.03125 0  0.109375 0.03125 0  0.125 0.03125 0  0.140625 0.03125 0  0.15625 0.03125 0  0.171875 0.03125 0  0.1875 0.03125 0  0.203125 0.03125 0  0.21875 0.03125 0  0.234375 0.03125 0  0.25 0.03125 0  0.265625 0.03125 0  0.28125 0.03125 0  0.296875 0.03125 0  0.3125 0.03125 0  0.328125 0.03125 0  0.34375 0.03125 0  0.359375 0.03125 0  0.375 0.03125 0  0.390625 0.03125 0  0.40625 0.03125 0  0.421875 0.03125 0  0.4375 0.03125 0  0.453125 0.03125 0  0.46875 0.03125 0  0.484375 0.03125 0  0.5 0.03125 0  0.515625 0.03125 0  0.53125 0.03125 0  0.546875 0.03125 0  0.5625 0.03125 0  0.578125 0.03125 0  0.59375 0.03125 0  0.609375 0.03125 0  0.625 0.03125 0  0.640625 0.03125 0  0.65625 0.03125 0  0.671875 0.03125 0  0.6875 0.03125 0  0.703125 0.03125 0  0.71875 0.03125 0  0.734375 0.03125 0  0.75 0.03125 0  0.765625 0.03125 0  0.78125 0.03125 0  0.796875 0.03125 0  0.8125 0.03125 0  0.828125 0.03125 0  0.84375 0.03125 0  0.859375 0.03125 0  0.875 0.03125 0  0.890625 0.03125 0  0.90625 0.03125 0  0.921875 0.03125 0  0.9375 0.03125 0  0.953125 0.03125 0  0.96875 0.03125 0  0.984375 0.03125 0  1 0.03125 0  0 0.046875 0  0.015625 0.046875 0  0.03125 0.046875 0  0.046875 0.046875 0  0.0625 0.046875 0  0.078125 0.046875 0  0.09375 0.046875 0  0.109375 0.046875 0  0.125 0.046875 0  0.140625 0.046875 0  0.15625 0.046875 0  0.171875 0.046875 0  0.1875 0.046875 0  0.203125 0.046875 0  0.21875 0.046875 0  0.234375 0.046875 0  0.25 0.046875 0  0.265625 0.046875 0  0.28125 0.046875 0  0.296875 0.046875 0  0.3125 0.046875 0  0.328125 0.046875 0  0.34375 0.046875 0  0.359375 0.046875 0  0.375 0.046875 0  0.390625 0.046875 0  0.40625 0.046875 0  0.421875 0.046875 0  0.4375 0.046875 0  0.453125 0.046875 0  0.46875 0.046875 0  0.484375 0.046875 0  0.5 0.046875 0  0.515625 0.046875 0  0.53125 0.046875 0  0.546875 0.046875 0  0.5625 0.046875 0  0.578125 0.046875 0  0.59375 0.046875 0  0.609375 0.046875 0  0.625 0.046875 0  0.640625 0.046875 0  0.65625 0.046875 0  0.671875 0.046875 0  0.6875 0.046875 0  0.703125 0.046875 0  0.71875 0.046875 0  0.734375 0.046875 0  0.75 0.046875 0  0.765625 0.046875 0  0.78125 0.046875 0  0.796875 0.046875 0  0.8125 0.046875 0  0.828125 0.046875 0  0.84375 0.046875 0  0.859375 0.046875 0  0.875 0.046875 0  0.890625 0.046875 0  0.90625 0.046875 0  0.921875 0.046875 0  0.9375 0.046875 0  0.953125 0.046875 0  0.96875 0.046875 0  0.984375 0.046875 0  1 0.046875 0  0 0.0625 0  0.015625 0.0625 0  0.03125 0.0625 0  0.046875 0.0625 0  0.0625 0.0625 0  0.078125 0.0625 0  0.09375 0.0625 0  0.109375 0.0625 0  0.125 0.0625 0  0.140625 0.0625 0  0.15625 0.0625 0  0.171875 0.0625 0  0.1875 0.0625 0  0.203125 0.0625 0  0.21875 0.0625 0  0.234375 0.0625 0  0.25 0.0625 0  0.265625 0.0625 0  0.28125 0.0625 0  0.296875 0.0625 0  0.3125 0.0625 0  0.328125 0.0625 0  0.34375 0.0625 0  0.359375 0.0625 0  0.375 0.0625 0  0.390625 0.0625 0  0.40625 0.0625 0  0.421875 0.0625 0  0.4375 0.0625 0  0.453125 0.0625 0  0.46875 0.0625 0  0.484375 0.0625 0  0.5 0.0625 0  0.515625 0.0625 0  0.53125 0.0625 0  0.546875 0.0625 0  0.5625 0.0625 0  0.578125 0.0625 0  0.59375 0.0625 0  0.609375 0.0625 0  0.625 0.0625 0  0.640625 0.0625 0  0.65625 0.0625 0  0.671875 0.0625 0  0.6875 0.0625 0  0.703125 0.0625 0  0.71875 0.0625 0  0.734375 0.0625 0  0.75 0.0625 0  0.765625 0.0625 0  0.78125 0.0625 0  0.796875 0.0625 0  0.8125 0.0625 0  0.828125 0.0625 0  0.84375 0.0625 0  0.859375 0.0625 0  0.875 0.0625 0  0.890625 0.0625 0  0.90625 0.0625 0  0.921875 0.0625 0  0.9375 0.0625 0  0.953125 0.0625 0  0.96875 0.0625 0  0.984375 0.0625 0  1 0.0625 0  0 0.078125 0  0.015625 0.078125 0  0.03125 0.078125 0  0.046875 0.078125 0  0.0625 0.078125 0  0.078125 0.078125 0  0.09375 0.078125 0  0.109375 0.078125 0  0.125 0.078125 0  0.140625 0.078125 0  0.15625 0.078125 0  0.171875 0.078125 0  0.1875 0.078125 0  0.203125 0.078125 0  0.21875 0.078125 0  0.234375 0.078125 0  0.25 0.078125 0  0.265625 0.078125 0  0.28125 0.078125 0  0.296875 0.078125 0  0.3125 0.078125 0  0.328125 0.078125 0  0.34375 0.078125 0  0.359375 0.078125 0  0.375 0.078125 0  0.390625 0.078125 0  0.40625 0.078125 0  0.421875 0.078125 0  0.4375 0.078125 0  0.453125 0.078125 0  0.46875 0.078125 0  0.484375 0.078125 0  0.5 0.078125 0  0.515625 0.078125 0  0.53125 0.078125 0  0.546875 0.078125 0  0.5625 0.078125 0  0.578125 0.078125 0  0.59375 0.078125 0  0.609375 0.078125 0  0.625 0.078125 0  0.640625 0.078125 0  0.65625 0.078125 0  0.671875 0.078125 0  0.6875 0.078125 0  0.703125 0.078125 0  0.71875 0.078125 0  0.734375 0.078125 0  0.75 0.078125 0  0.765625 0.078125 0  0.78125 0.078125 0  0.796875 0.078125 0  0.8125 0.078125 0  0.828125 0.078125 0  0.84375 0.078125 0  0.859375 0.078125 0  0.875 0.078125 0  0.890625 0.078125 0  0.90625 0.078125 0  0.921875 0.078125 0  0.9375 0.078125 0  0.953125 0.078125 0  0.96875 0.078125 0  0.984375 0.078125 0  1 0.078125 0  0 0.09375 0  0.015625 0.09375 0  0.03125 0.09375 0  0.046875 0.09375 0  0.0625 0.09375 0  0.078125 0.09375 0  0.09375 0.09375 0  0.109375 0.09375 0  0.125 0.09375 0  0.140625 0.09375 0  0.15625 0.09375 0  0.171875 0.09375 0  0.1875 0.09375 0  0.203125 0.09375 0  0.21875 0.09375 0  0.234375 0.09375 0  0.25 0.09375 0  0.265625 0.09375 0  0.28125 0.09375 0  0.296875 0.09375 0  0.3125 0.09375 0  0.328125 0.09375 0  0.34375 0.09375 0  0.359375 0.09375 0  0.375 0.09375 0  0.390625 0.09375 0  0.40625 0.09375 0  0.421875 0.09375 0  0.4375 0.09375 0  0.453125 0.09375 0  0.46875 0.09375 0  0.484375 0.09375 0  0.5 0.09375 0  0.515625 0.09375 0  0.53125 0.09375 0  0.546875 0.09375 0  0.5625 0.09375 0  0.578125 0.09375 0  0.59375 0.09375 0  0.609375 0.09375 0  0.625 0.09375 0  0.640625 0.09375 0  0.65625 0.09375 0  0.671875 0.09375 0  0.6875 0.09375 0  0.703125 0.09375 0  0.71875 0.09375 0  0.734375 0.09375 0  0.75 0.09375 0  0.765625 0.09375 0  0.78125 0.09375 0  0.796875 0.09375 0  0.8125 0.09375 0  0.828125 0.09375 0  0.84375 0.09375 0  0.859375 0.09375 0  0.875 0.09375 0  0.890625 0.09375 0  0.90625 0.09375 0  0.921875 0.09375 0  0.9375 0.09375 0  0.953125 0.09375 0  0.96875 0.09375 0  0.984375 0.09375 0  1 0.09375 0  0 0.109375 0  0.015625 0.109375 0  0.03125 0.109375 0  0.046875 0.109375 0  0.0625 0.109375 0  0.078125 0.109375 0  0.09375 0.109375 0  0.109375 0.109375 0  0.125 0.109375 0  0.140625 0.109375 0  0.15625 0.109375 0  0.171875 0.109375 0  0.1875 0.109375 0  0.203125 0.109375 0  0.21875 0.109375 0  0.234375 0.109375 0  0.25 0.109375 0  0.265625 0.109375 0  0.28125 0.109375 0  0.296875 0.109375 0  0.3125 0.109375 0  0.328125 0.109375 0  0.34375 0.109375 0  0.359375 0.109375 0  0.375 0.109375 0  0.390625 0.109375 0  0.40625 0.109375 0  0.421875 0.109375 0  0.4375 0.109375 0  0.453125 0.109375 0  0.46875 0.109375 0  0.484375 0.109375 0  0.5 0.109375 0  0.515625 0.109375 0  0.53125 0.109375 0  0.546875 0.109375 0  0.5625 0.109375 0  0.578125 0.109375 0  0.59375 0.109375 0  0.609375 0.109375 0  0.625 0.109375 0  0.640625 0.109375 0  0.65625 0.109375 0  0.671875 0.109375 0  0.6875 0.109375 0  0.703125 0.109375 0  0.71875 0.109375 0  0.734375 0.109375 0  0.75 0.109375 0  0.765625 0.109375 0  0.78125 0.109375 0  0.796875 0.109375 0  0.8125 0.109375 0  0.828125 0.109375 0  0.84375 0.109375 0  0.859375 0.109375 0  0.875 0.109375 0  0.890625 0.109375 0  0.90625 0.109375 0  0.921875 0.109375 0  0.9375 0.109375 0  0.953125 0.109375 0  0.96875 0.109375 0  0.984375 0.109375 0  1 0.109375 0  0 0.125 0  0.015625 0.125 0  0.03125 0.125 0  0.046875 0.125 0  0.0625 0.125 0  0.078125 0.125 0  0.09375 0.125 0  0.109375 0.125 0  0.125 0.12
[...]
<PointData  Scalars="f_14"> 
<DataArray  type="Float64"  Name="f_14"  format="ascii">8.1943335369230634e-17  7.6828167185781077e-17  6.6806933235203676e-17  5.3666453840929953e-17  3.8928444319641977e-17  2.3819186457436494e-17  9.2803782428091652e-18  -4.0143645982219291e-18  -1.5631937999833634e-17  -2.5349395516760598e-17  -3.3144517627705611e-17  -3.9272614914247515e-17  -4.4587975768354856e-17  -5.1436371359112311e-17  -6.5660749086401997e-17  -1.0009927319137302e-16  -1.7974481845385953e-16  -3.4692485657454008e-16  -6.6292465978408717e-16  -1.2008653302012203e-15  -2.0260813388441761e-15  -3.1661987772717173e-15  -4.5818445686880568e-15  -6.1545306895321701e-15  -7.7042917522747278e-15  -9.0354198881829721e-15  -9.9922139701901604e-15  -1.0499801638427853e-14  -1.0573320571610535e-14  -1.0296182218183240e-14  -9.7825911144372961e-15  -9.1426872058951275e-15  -8.4616525299370695e-15  -7.7941349039183567e-15  -7.1688311743037269e-15  -6.5968071110201862e-15  -6.0791801337482887e-15  -5.6124540468065001e-15  -5.1915541310919994e-15  -4.8112730116387410e-15  -4.4668311621514381e-15  -4.1540234347899711e-15  -3.8692035489643045e-15  -3.6092195163405161e-15  -3.3713428854563485e-15  -3.1532050006280338e-15  -2.9527427722136327e-15  -2.7681532655809405e-15  -2.5978557625250699e-15  -2.4404600022693728e-15  -2.2947395127754394e-15  -2.1596091411805147e-15  -2.0341060634626538e-15  -1.9173737061956039e-15  -1.8086481597062466e-15  -1.7072467377213513e-15  -1.6125579330082963e-15  -1.5240299136548954e-15  -1.4411490489415145e-15  -1.3633938738717401e-15  -1.2901901114043798e-15  -1.2211614944186732e-15  -1.1574703986549758e-15  -1.1049763944388899e-15  -1.0886697615976678e-15  8.1353343214708925e-17  7.8790236581833145e-17  7.0587945683161757e-17  5.8925467981372211e-17  4.5278134521898907e-17  3.0873037843954730e-17  1.6675584901846685e-17  3.4034768598464403e-18  -8.4534853373253418e-18  -1.8609107043833064e-17  -2.6970567466605154e-17  -3.3690305159773767e-17  -3.9389546552442805e-17  -4.5758113142972609e-17  -5.6811828255458411e-17  -8.0824030803318324e-17  -1.3265424035914697e-16  -2.3498096910490443e-16  -4.1636424097358506e-16  -7.0466518152757161e-16  -1.1172556510345735e-15  -1.6533228996086915e-15  -2.2945970585047390e-15  -3.0157077170462609e-15  -3.7963689412851909e-15  -4.6232298652881622e-15  -5.4765617972985005e-15  -6.3118500886288897e-15  -7.0546133933265813e-15  -7.6183783985339983e-15  -7.9370176351970024e-15  -7.9907835823078901e-15  -7.8105425369039786e-15  -7.4607478563280970e-15  -7.0140985072008316e-15  -6.5316003142773401e-15  -6.0541143306452867e-15  -5.6035490957797096e-15  -5.1885181159136150e-15  -4.8101777732309542e-15  -4.4663358583476408e-15  -4.1537153050604725e-15  -3.8689656039835356e-15  -3.6090192126177976e-15  -3.3711696777740226e-15  -3.1530538839900848e-15  -2.9526103448048137e-15  -2.7680368237524836e-15  -2.5977530603464834e-15  -2.4403691516039234e-15  -2.2946589186459631e-15  -2.1595374520433162e-15  -2.0340421307683480e-15  -1.9173165464397804e-15  -1.8085969007122925e-15  -1.7072005141949514e-15  -1.6125157458684802e-15  -1.5239908869798490e-15  -1.4411150110094033e-15  -1.3633791637105720e-15  -1.2902419512286679e-15  -1.2213525845591991e-15  -1.1576708874589260e-15  -1.1040182345835835e-15  -1.0829158360608870e-15  8.4553387310790462e-17  7.9912791041886504e-17  7.2183029763255317e-17  6.0659289155693243e-17  4.7072446207867053e-17  3.2653731772117363e-17  1.8384950127932052e-17  4.9995301618269009e-18  -6.9958020470848687e-18  -1.7288576713728848e-17  -2.5705326069454757e-17  -3.2076269268490412e-17  -3.5784447434521025e-17  -3.4240199656743784e-17  -1.8303990899953274e-17  3.9427154724036458e-17  2.0921319517374035e-16  6.4515823053363880e-16  1.6334268897316585e-15  3.6128401299837539e-15  7.1067558772069112e-15  1.2512231945632250e-14  1.9768085433077886e-14  2.8054253074952879e-14  3.5765142279002816e-14  4.0923499782779304e-14  4.1937412660669324e-14  3.8319786596181075e-14  3.0937896597254561e-14  2.1630647332665653e-14  1.2430112474933442e-14  4.8386305038076835e-15  -4.9910294298329615e-16  -3.6903434971593625e-15  -5.2543571423528386e-15  -5.7880456997072985e-15  -5.7695251790182340e-15  -5.5047527275074343e-15  -5.1572888497876450e-15  -4.8010745717875128e-15  -4.4637803568111655e-15  -4.1529270514160502e-15  -3.8686262999511441e-15  -3.6087995319196053e-15  -3.3709931220485951e-15  -3.1529022493123472e-15  -2.9524778488763917e-15  -2.7679203761789863e-15  -2.5976503589604346e-15  -2.4402783012493074e-15  -2.2945783238006256e-15  -2.1594657611663698e-15  -2.0339781950337588e-15  -1.9172593823070344e-15  -1.8085456405599577e-15  -1.7071543168041049e-15  -1.6124736845639004e-15  -1.5239521971163089e-15  -1.4410812776728995e-15  -1.3633622870921188e-15  -1.2902812606743166e-15  -1.2215095445824122e-15  -1.1578010005701319e-15  -1.1030333241160022e-15  -1.0795631920216929e-15  7.6601312363951693e-17  7.9538333615040960e-17  7.4347594429712291e-17  6.5741234264801083e-17  5.4459364301276799e-17  4.1782228672325764e-17  2.8676806296270113e-17  1.5909992486852373e-17  4.0752543159867084e-18  -6.2872114950475926e-18  -1.4193806980323742e-17  -1.6230518075486384e-17  6.4229715728672023e-19  8.2084164352422144e-17  3.7031305019660528e-16  1.2564647983356877e-15  3.6842413697822009e-15  9.6325662141710399e-15  2.2653446676113258e-14  4.8052634199697526e-14  9.2025318615394681e-14  1.5917367545539844e-13  2.4870642651780778e-13  3.5107173232007058e-13  4.4773126997972992e-13  5.1588123845494369e-13  5.3698050116536964e-13  5.0483791085948194e-13  4.2847744407113621e-13  3.2799107359749337e-13  2.2597271300206935e-13  1.3948640288453345e-13  7.6315452145699752e-14  3.5963729813902338e-14  1.3272672076286586e-14  2.0476301939102684e-15  -2.7690475841495779e-15  -4.4641837850679998e-15  -4.8302889896228724e-15  -4.7078287926536477e-15  -4.4395375283663716e-15  -4.1470735170724858e-15  -3.8672147729614682e-15  -3.6083741113796656e-15  -3.3707807797381914e-15  -3.1527449750223862e-15  -2.9523445505933505e-15  -2.7678038273828690e-15  -2.5975476471052033e-15  -2.4401874500446649e-15  -2.2944977281904139e-15  -2.1593940686509199e-15  -2.0339142565130241e-15  -1.9172022143234931e-15  -1.8084943794272262e-15  -1.7071081413994485e-15  -1.6124317290518822e-15  -1.5239137798829883e-15  -1.4410477224416565e-15  -1.3633435554529258e-15  -1.2903105256379137e-15  -1.2216340919214989e-15  -1.1578699144106884e-15  -1.1021925597772602e-15  -1.0774164472183610e-15  9.5214717519238961e-17  8.3447516074713020e-17  7.7218191023014340e-17  6.6271426607493241e-17  5.3042159793849704e-17  3.8664607781735539e-17  2.4215356695283098e-17  1.0531022161539938e-17  -1.5404756008833667e-18  -1.0083624733583804e-17  -7.2826905376122653e-18  4.0358301092081530e-17  2.6369696939378867e-16  1.1189701160580955e-15  4.0183422585146863e-15  1.2824554394928874e-14  3.6816104610068480e-14  9.5379510111891305e-14  2.2320743894778933e-13  4.7198805167003765e-13  9.0192957816772191e-13  1.5576179375744002e-12  2.4311883612146935e-12  3.4298068291211892e-12  4.3736235881995106e-12  5.0415555993655743e-12  5.2537834024061394e-12  4.9499047180500411e-12  4.2166280710142937e-12  3.2477834221620520e-12  2.2616759620371575e-12  1.4235329127248852e-12  8.0917413744183507e-13  4.1449800277867977e-13  1.9024704149637382e-13  7.6952954520242093e-14  2.5938211194348447e-14  5.4997705657608908e-15  -1.6975134186976843e-15  -3.8153007176987761e-15  -4.2089678388282132e-15  -4.0929467635031500e-15  -3.8555646429368746e-15  -3.6059796716095164e-15  -3.3702250206181625e-15  -3.1525333739928764e-15  -2.9522034588519403e-15  -2.7676862666295986e-15  -2.5974448172827984e-15  -2.4400965865870751e-15  -2.2944171308019541e-15  -2.1593223745178495e-15  -2.0338503154256438e-15  -1.9171450429057420e-15  -1.8084431173895276e-15  -1.7070619846454299e-15  -1.6123898619018766e-15  -1.5238755781074176e-15  -1.4410142715329535e-15  -1.3633232800675532e-15  -1.2903311740192731e-15  -1.2217294020536062e-15  -1.1578977363443353e-15  -1.1015184093124569e-15  -1.0759479999343471e-15  5.4185793205362263e-17  7.4084439175257561e-17  7.1681234928257809e-17  6.8219184944225045e-17  6.1323259378260851e-17  5.2320078530329352e-17  4.2116485407514320e-17  3.1868918696226573e-17  2.4700713502408231e-17  3.4891594343770083e-17  1.3034486389688886e-16  6.0688917231169135e-16  2.6196673698816250e-15  1.0189030687796672e-14  3.5739475668393503e-14  1.1320959028629859e-13  3.2402037413707208e-13  8.3809553198688684e-13  1.9591744997471552e-12  4.1392641080562907e-12  7.9041313591440036e-12  1.3642055130858958e-11  2.1282302679825189e-11  3.0011990022338794e-11  3.8259433942046629e-11  4.4094670672689363e-11  4.5949367197973062e-11  4.3297831701673535e-11  3.6897551280380725e-11  2.8439889500324651e-11  1.9829454472836884e-11  1.2508129232681773e-11  7.1383248417778697e-12  3.6854054454258111e-12  1.7205080940172723e-12  7.2516421622910269e-13  2.7459638224114513e-13  9.1898543787385542e-14  2.5499291796016893e-14  3.9422977311643703e-15  -2.2033423883192514e-15  -3.6227523378630818e-15  -3.7554843671530618e-15  -3.5865390654913391e-15  -3.3666882995250215e-15  -3.1518487185667837e-15  -2.9519942252778614e-15  -2.7675597945179918e-15  -2.5973409297610457e-15  -2.4400056091733996e-15  -2.2943365216333605e-15  -2.1592506779416438e-15  -2.0337863718811604e-15  -1.9170878683764857e-15  -1.8083918544843447e-15  -1.7070158437139692e-15  -1.6123480677037859e-15  -1.5238375452466115e-15  -1.4409808844595207e-15  -1.3633016927820264e-15  -1.2903442277833159e-15  -1.2217998055106424e-15  -1.1579007798642881e-15  -1.1009906753417713e-15  -1.0749002276721388e-15  1.3823991115919168e-16  9.5763688023198182e-17  9.0178626133833681e-17  7.5985284796382479e-17  5.9982966899441128e-17  4.2761160945710703e-17  2.6168142089984476e-17  1.4500240115833505e-17  2.8723961888216369e-17  1.7979856615549254e-16  1.0077891266411678e-15  4.8721774588169933e-15  2.0982293912439427e-14  8.1360173567235060e-14  2.8486747675585022e-13  9.0128450332858261e-13  2.5771959306247074e-12  6.6606797811739033e-12  1.5558984806760581e-11  3.2850439356774078e-11  6.2691342758071409e-11  1.0814209557837530e-10  1.6862540919668954e-10  2.3769428159406588e-10  3.0291084118104322e-10  3.4902021115220594e-10  3.6363993787354321e-10  3.4263307810065342e-10  2.9199849788457204e-10  2.2510608399100126e-10  1.5700543434218678e-10  9.9090284202222731e-11  5.6598467116800356e-11  2.9261642157874964e-11  1.3694873399207033e-11  5.8019119416519089e-12  2.2240855238966714e-12  7.7007948011533447e-13  2.3927090777310701e-13  6.5012329014334659e-14  1.3612049925848201e-14  9.1059857868559336e-17  -2.9644199634702588e-15  -3.4335560265236194e-15  -3.3397302720837089e-15  -3.1474351409255092e-15  -2.9512458686592882e-15  -2.7673625146384039e-15  -2.5972285917274773e-15  -2.4399137152282186e-15  -2.2942558216022584e-15  -2.1591789719582406e-15  -2.0337224254895061e-15  -1.9170306909707452e-15  -1.8083405907289887e-15  -1.7069697161031228e-15  -1.6123063331166828e-15  -1.5237996451315002e-15  -1.4409475365813458e-15  -1.3632789558599165e-15  -1.2903505943810160e-15  -1.2218498230747853e-15  -1.1578898646904096e-15  -1.1005811152914463e-15  -1.0741327884088205e-15  -3.1268911424351418e-17  4.7921980632086028e-17  4.7188620125417783e-17  5.4811499653274904e-17  5.8115445347515208e-17  5.9304171181585629e-17  6.2134338014691293e-17  9.1321959369788097e-17  2.9447896925743142e-16  1.4732487304580650e-15  7.5369119116767137e-15  3.5550990238584603e-14  1.5205446922969763e-13  5.8817261496698085e-13  2.0567370975651881e-12  6.5010306748588815e-12  1.8573904481716819e-11  4.7966417538279812e-11  1.1196562498099132e-10  2.3623846382247582e-10  4.5055260394428901e-10  7.7675812614946438e-10  1.2105820239658607e-09  1.7056895952931864e-09  2.1728964570748670e-09  2.5029592355093367e-09  2.6073123023924641e-09  2.4564712935813075e-09  2.0934860863560594e-09  1.6141118026823169e-09  1.1260874731962117e-09  7.1098303802150852e-10  4.0632319414430287e-10  2.1022671210930607e-10  9.8488755652593481e-11  4.1786979212863815e-11  1.6058399037747628e-11  5.5891457424603318e-12  1.7606386136786115e-12  5.0039569421513865e-13  1.2658687968199969e-13  2.6678562039272585e-14  2.7121678921665856e-15  -2.3335894290413615e-15  -3.1461332788166241e-15  -3.1163912223157094e-15  -2.9466309275651908e-15  -2.7666549173720306e-15  -2.5970549959124199e-15  -2.4398151286325506e-15  -2.2941744548432801e-15  -2.1591072041564878e-15  -2.0336584719816003e-15  -1.9169735105586423e-15  -1.8082893260876481e-15  -1.7069235995640870e-15  -1.6122646469027540e-15  -1.5237618500037195e-15  -1.4409142096056078e-15  -1.3632551900000975e-15  -1.2903511468107954e-15  -1.2218835685702716e-15  -1.1578715735425571e-15  -1.1002638175237855e-15  -1.0735612440661222e-15  2.9599663255387402e-16  1.4533726597263292e-16  1.4253223833658274e-16  1.1448528994515521e-16  8.6443826157086946e-17  6.0208867316112187e-17  6.1901736554577520e-17  2.5296933780635750e-16  1.6028848353612893e-15  9.3768300847830370e-15  4.9230180488864652e-14  2.3304646159806357e-13  9.9661156107485103e-13  3.8520764064138630e-12  1.3458389627054807e-11  4.2503495241424989e-11  1.2133514191153639e-10  3.1309586989267625e-10  7.3029630515271381e-10  1.5397817116417912e-09  2.9347457336838880e-09  5.0565263952684299e-09  7.8764466597959292e-09  1.1092698396104628e-08  1.4125773488327976e-08  1.6266775236241519e-08  1.6941713438388680e-08  1.5960199128614236e-08  1.3602176820681643e-08  1.0489063838253971e-08  7.3197595167797672e-09  4.6234507417462000e-09  2.6437847654282845e-09  1.3688649919928153e-09  6.4188421074423373e-10  2.7264848507541773e-10  1.0492721437600407e-10  3.6592479402077402e-11  1.1565283491290912e-11  3.3118347958106795e-12  8.5775050353033440e-13  1.9918845741263168e-13  3.9649284092213450e-14  4.8462598582878200e-15  -1.8785799633930543e-15  -2.9129780759252362e-15  -2.9168664615509556e-15  -2.7626096479396529e-15  -2.5964782329427153e-15  -2.4396721835629590e-15  -2.2940886386013662e-15  -2.1590350281474002e-15  -2.0335944825967009e-15  -1.9169163251614020e-15  -1.8082380603928416e-15  -1.7068774920934312e-15  -1.6122229997982301e-15  -1.5237241383547313e-15  -1.4408808879502028e-15  -1.3632304960936759e-15  -1.2903467199240879e-15  -1.2219045162762519e-15  -1.1578497085197947e-15  -1.1000175524608827e-15  -1.0731307169991792e-15  -3.2639835819262129e-16  -5.0816702035656769e-17  -5.7803162539515727e-17  -2.2607188552892096e-17  9.4621636227606086e-18  6.1642543271017660e-17  2.7335107805785950e-16  1.5979549127325238e-15  9.8096472519981674e-15  5.6271325978238462e-14  2.9365630747418123e-13  1.3870622201562291e-12  5.9242607047710781e-12  2.2875080314896805e-11  7.9846218215955547e-11  2.5194016607350003e-10  7.1859794288991192e-10  1.8527593996304349e-09  4.3181794747628522e-09  9.0978908503771023e-09  1.7328264083178747e-08  2.9837759872743334e-08  4.6451909697035025e-08  6.5388820040568285e-08  8.3235638093575464e-08  9.5823293104008130e-08  9.9780428439243482e-08  9.3992821616312845e-08  8.0110079103292071e-08  6.1786830728500521e-08  4.3131904740681311e-08  2.7256939590419096e-08  1.5596128929767678e-08  8.0817773806213132e-09  3.7934975789706049e-09  1.6132868371574018e-09  6.2175836950655193e-10  2.1720611108376698e-10  6.8796033186560999e-11  1.9759520885433562e-11  5.1462447930069804e-12  1.2139608505458300e-12  2.5764555157189204e-13  4.7378327443017936e-14  5.6613344924934836e-15  -1.6977863067687421e-15  -2.7386331854776796e-15  -2.7387318930330166e-15  -2.5934878946708066e-15  -2.4392613802577830e-15  -2.2939756808259960e-15  -2.1589603361267930e-15  -2.0335302777466785e-15  -1.9168591207659933e-15  -1.8081867925311632e-15  -1.7068313918576226e-15  -1.6121813842498533e-15  -1.5236864931859668e-15  -1.4408475580232911e-15  -1.3632049670146873e-15  -1.2903380872758406e-15  -1.2219154786465062e-15  -1.1578263695932919e-15  -1.0998256451627609e-15  -1.0728035788322622e-15  8.2519833372786415e-16  3.2668768118923928e-16  3.4470145313371385e-16  2.7822486941027276e-16  2.2692276799331460e-16  2.8593669311485778e-16  1.2296533206195189e-15  8.2301938516939666e-15  5.2528563032181976e-14  3.0358548250476623e-13  1.5853925914333602e-12  7.4835639575030729e-12  3.1933667284055021e-11  1.2318638368166024e-10  4.2957989027219552e-10  1.3542104665890585e-09  3.8591020818196383e-09  9.9413579740465195e-09  2.3151086667135263e-08  4.8738953708362443e-08  9.2764041906911122e-08  1.5962767063160121e-07  2.4836779719318989e-07  3.4944732652597790e-07  4.4464692938326370e-07  5.1174152049125058e-07  5.3278121894345342e-07  5.0185376548206933e-07  4.2776787033652691e-07  3.3000425706901857e-07  2.3045898387526112e-07  1.4571928119660219e-07  8.3441142864190882e-08  4.3279059891733426e-08  2.0338002604256500e-08  8.6611310320904315e-09  3.3433709778734295e-09  1.1701769015714381e-09  3.7144509496501100e-10  1.0696380486322946e-10  2.7950639317164468e-11  6.6282177151409289e-12  1.4251895642835509e-12  2.7615809205913299e-13  4.6417632487401878e-14  4.9070855704591595e-15  -1.7641923256706899e-15  -2.6076782115078723e-15  -2.5773394210961616e-15  -2.4373755019424653e-15  -2.2937115249095702e-15  -2.1588714501398166e-15  -2.0334648490686870e-15  -1.9168018176249039e-15  -1.8081355166800350e-15  -1.7067852969910965e-15  -1.6121397941262396e-15  -1.5236489008010043e-15  -1.4408142084844711e-15  -1.3631786921158628e-15  -1.2903259426298321e-15  -1.2219186775904792e-15  -1.1578026547141088e-15  -1.0996752210446019e-15  -1.0725531106780897e-15  -1.2721787215101233e-15  -3.8942272427726470e-16  -4.4251060239298220e-16  -3.3434743317651407e-16  -1.6370843645888949e-16  5.9011896995785954e-16  5.6958823550421119e-15  4.0537098763930839e-14  2.5839668628322469e-13  1.4898898377417178e-12  7.7692998540095487e-12  3.6631911894887832e-11  1.5615109817269760e-10  6.0175411653162245e-10  2.0963829184459592e-09  6.6022751668823305e-09  1.8796929133331155e-08  4.8378749994903931e-08  1.1256593865452123e-07  2.3678852749864006e-07  4.5033870880178489e-07  7.7441503736950634e-07  1.2042106504952569e-06  1.6934446851955580e-06  2.1539335392343876e-06  2.4782554124652207e-06  2.5797554278706754e-06  2.4299758193592513e-06  2.0715436429208062e-06  1.5985926089746485e-06  1.1169163954931372e-06  7.0669939134716594e-07  4.0501988682852366e-07  2.1030345300062961e-07  9.8957905768378663e-08  4.2208466494305941e-08  1.6323405755367687e-08  5.7254362288526190e-09  1.8219070081154343e-09  5.2614675988907635e-10  1.3794419686929518e-10  3.2844856622280574e-11  7.1036977940555534e-12  1.3944803454925645e-12  2.4678919115635711e-13  3.7591744654809894e-14  3.0937113899010391e-15  -1.9490937231594009e-15  -2.4957426234385407e-15  -2.4280631799610260e-15  -2.2926753380334203e-15  -2.1587088788819772e-15  -2.0333929445414063e-15  -1.9167439867012722e-15  -1.8080841999972706e-15  -1.7067392038119630e-15  -1.6120982242742253e-15  -1.5236113499899076e-15  -1.4407808305556452e-15  -1.3631517577467022e-15  -1.2903108915254352e-15  -1.2219158445340912e-15  -1.1577790892879168e-15  -1.0995564093532486e-15  -1.0723599109022608e-15  2.4708494157117415e-15  9.3226892621349710e-16  1.0579095869422920e-15  9.3216604613373950e-16  1.1106293503130409e-15  3.8241366742680038e-15  2.5955341574708122e-14  1.8071409329158016e-13  1.1507503257673840e-12  6.6307397994814001e-12  3.4544460399963676e-11  1.6270660212847512e-10  6.9283966162192385e-10  2.6671750481468780e-09  9.2822713629588477e-09  2.9203690856873774e-08  8.3062270764182927e-08  2.1357976336822849e-07  4.9650175853613485e-07  1.0435349683483493e-06  1.9831120356323188e-06  3.4078275214974231e-06  5.2959245612764165e-06  7.4437373997543254e-06  9.4641994070789901e-06  1.0886436230459872e-05  1.1331006773827229e-05  1.0673579598388040e-05  9.1011021295362612e-06  7.0260111138998058e-06  4.9118848527567418e-06  3.1103577966116240e-06  1.7844259222408695e-06  9.2772872320538964e-07  4.37