<?xml version="1.0"?>
<VTKFile type="UnstructuredGrid"  version="0.1"  >
<UnstructuredGrid>
<Piece  NumberOfPoints="4225" NumberOfCells="8192">
<Points>
<DataArray  type="Float64"  NumberOfComponents="3"  format="ascii">0 0 0  0.015625 0 0  0.03125 0 0  0.046875 0 0  0.0625 0 0  0.078125 0 0  0.09375 0 0  0.109375 0 0  0.125 0 0  0.140625 0 0  0.15625 0 0  0.171875 0 0  0.1875 0 0  0.203125 0 0  0.21875 0 0  0.234375 0 0  0.25 0 0  0.265625 0 0  0.28125 0 0  0.296875 0 0  0.3125 0 0  0.328125 0 0  0.34375 0 0  0.359375 0 0  0.375 0 0  0.390625 0 0  0.40625 0 0  0.421875 0 0  0.4375 0 0  0.453125 0 0  0.46875 0 0  0.484375 0 0  0.5 0 0  0.515625 0 0  0.53125 0 0  0.546875 0 0  0.5625 0 0  0.578125 0 0  0.59375 0 0  0.609375 0 0  0.625 0 0  0.640625 0 0  0.65625 0 0  0.671875 0 0  0.6875 0 0  0.703125 0 0  0.71875 0 0  0.734375 0 0  0.75 0 0  0.765625 0 0  0.78125 0 0  0.796875 0 0  0.8125 0 0  0.828125 0 0  0.84375 0 0  0.859375 0 0  0.875 0 0  0.890625 0 0  0.90625 0 0  0.921875 0 0  0.9375 0 0  0.953125 0 0  0.96875 0 0  0.984375 0 0  1 0 0  0 0.015625 0  0.015625 0.015625 0  0.03125 0.015625 0  0.046875 0.015625 0  0.0625 0.015625 0  0.078125 0.015625 0  0.09375 0.015625 0  0.109375 0.015625 0  0.125 0.015625 0  0.140625 0.015625 0  0.15625 0.015625 0  0.171875 0.015625 0  0.1875 0.015625 0  0.203125 0.015625 0  0.21875 0.015625 0  0.234375 0.015625 0  0.25 0.015625 0  0.265625 0.015625 0  0.28125 0.015625 0  0.296875 0.015625 0  0.3125 0.015625 0  0.328125 0.015625 0  0.34375 0.015625 0  0.359375 0.015625 0  0.375 0.015625 0  0.390625 0.015625 0  0.40625 0.015625 0  0.421875 0.015625 0  0.4375 0.015625 0  0.453125 0.015625 0  0.46875 0.015625 0  0.484375 0.015625 0  0.5 0.015625 0  0.515625 0.015625 0  0.53125 0.015625 0  0.546875 0.015625 0  0.5625 0.015625 0  0.578125 0.015625 0  0.59375 0.015625 0  0.609375 0.015625 0  0.625 0.015625 0  0.640625 0.015625 0  0.65625 0.015625 0  0.671875 0.015625 0  0.6875 0.015625 0  0.703125 0.015625 0  0.71875 0.015625 0  0.734375 0.015625 0  0.75 0.015625 0  0.765625 0.015625 0  0.78125 0.015625 0  0.796875 0.015625 0  0.8125 0.015625 0  0.828125 0.015625 0  0.84375 0.015625 0  0.859375 0.015625 0  0.875 0.015625 0  0.890625 0.015625 0  0.90625 0.015625 0  0.921875 0.015625 0  0.9375 0.015625 0  0.953125 0.015625 0  0.96875 0.015625 0  0.984375 0.015625 0  1 0.015625 0  0 0.03125 0  0.015625 0.03125 0  0.03125 0.03125 0  0.046875 0.03125 0  0.0625 0.03125 0  0.078125 0.03125 0  0.09375 0.03125 0  0.109375 0.03125 0  0.125 0.03125 0  0.140625 0.03125 0  0.15625 0.03125 0  0.171875 0.03125 0  0.1875 0.03125 0  0.203125 0.03125 0  0.21875 0.03125 0  0.234375 0.03125 0  0.25 0.03125 0  0.265625 0.03125 0  0.28125 0.03125 0  0.296875 0.03125 0  0.3125 0.03125 0  0.328125 0.03125 0  0.34375 0.03125 0  0.359375 0.03125 0  0.375 0.03125 0  0.390625 0.03125 0  0.40625 0.03125 0  0.421875 0.03125 0  0.4375 0.03125 0  0.453125 0.03125 0  0.46875 0.03125 0  0.484375 0.03125 0  0.5 0.03125 0  0.515625 0.03125 0  0.53125 0.03125 0  0.546875 0.03125 0  0.5625 0.03125 0  0.578125 0.03125 0  0.59375 0.03125 0  0.609375 0.03125 0  0.625 0.03125 0  0.640625 0.03125 0  0.65625 0.03125 0  0.671875 0.03125 0  0.6875 0.03125 0  0.703125 0.03125 0  0.71875 0.03125 0  0.734375 0.03125 0  0.75 0.03125 0  0.765625 0.03125 0  0.78125 0.03125 0  0.796875 0.03125 0  0.8125 0.03125 0  0.828125 0.03125 0  0.84375 0.03125 0  0.859375 0.03125 0  0.875 0.03125 0  0.890625 0.03125 0  0.90625 0.03125 0  0.921875 0.03125 0  0.9375 0.03125 0  0.953125 0.03125 0  0.96875 0.03125 0  0.984375 0.03125 0  1 0.03125 0  0 0.046875 0  0.015625 0.046875 0  0.03125 0.046875 0  0.046875 0.046875 0  0.0625 0.046875 0  0.078125 0.046875 0  0.09375 0.046875 0  0.109375 0.046875 0  0.125 0.046875 0  0.140625 0.046875 0  0.15625 0.046875 0  0.171875 0.046875 0  0.1875 0.046875 0  0.203125 0.046875 0  0.21875 0.046875 0  0.234375 0.046875 0  0.25 0.046875 0  0.265625 0.046875 0  0.28125 0.046875 0  0.296875 0.046875 0  0.3125 0.046875 0  0.328125 0.046875 0  0.34375 0.046875 0  0.359375 0.046875 0  0.375 0.046875 0  0.390625 0.046875 0  0.40625 0.046875 0  0.421875 0.046875 0  0.4375 0.046875 0  0.453125 0.046875 0  0.46875 0.046875 0  0.484375 0.046875 0  0.5 0.046875 0  0.515625 0.046875 0  0.53125 0.046875 0  0.546875 0.046875 0  0.5625 0.046875 0  0.578125 0.046875 0  0.59375 0.046875 0  0.609375 0.046875 0  0.625 0.046875 0  0.640625 0.046875 0  0.65625 0.046875 0  0.671875 0.046875 0  0.6875 0.046875 0  0.703125 0.046875 0  0.71875 0.046875 0  0.734375 0.046875 0  0.75 0.046875 0  0.765625 0.046875 0  0.78125 0.046875 0  0.796875 0.046875 0  0.8125 0.046875 0  0.828125 0.046875 0  0.84375 0.046875 0  0.859375 0.046875 0  0.875 0.046875 0  0.890625 0.046875 0  0.90625 0.046875 0  0.921875 0.046875 0  0.9375 0.046875 0  0.953125 0.046875 0  0.96875 0.046875 0  0.984375 0.046875 0  1 0.046875 0  0 0.0625 0  0.015625 0.0625 0  0.03125 0.0625 0  0.046875 0.0625 0  0.0625 0.0625 0  0.078125 0.0625 0  0.09375 0.0625 0  0.109375 0.0625 0  0.125 0.0625 0  0.140625 0.0625 0  0.15625 0.0625 0  0.171875 0.0625 0  0.1875 0.0625 0  0.203125 0.0625 0  0.21875 0.0625 0  0.234375 0.0625 0  0.25 0.0625 0  0.265625 0.0625 0  0.28125 0.0625 0  0.296875 0.0625 0  0.3125 0.0625 0  0.328125 0.0625 0  0.34375 0.0625 0  0.359375 0.0625 0  0.375 0.0625 0  0.390625 0.0625 0  0.40625 0.0625 0  0.421875 0.0625 0  0.4375 0.0625 0  0.453125 0.0625 0  0.46875 0.0625 0  0.484375 0.0625 0  0.5 0.0625 0  0.515625 0.0625 0  0.53125 0.0625 0  0.546875 0.0625 0  0.5625 0.0625 0  0.578125 0.0625 0  0.59375 0.0625 0  0.609375 0.0625 0  0.625 0.0625 0  0.640625 0.0625 0  0.65625 0.0625 0  0.671875 0.0625 0  0.6875 0.0625 0  0.703125 0.0625 0  0.71875 0.0625 0  0.734375 0.0625 0  0.75 0.0625 0  0.765625 0.0625 0  0.78125 0.0625 0  0.796875 0.0625 0  0.8125 0.0625 0  0.828125 0.0625 0  0.84375 0.0625 0  0.859375 0.0625 0  0.875 0.0625 0  0.890625 0.0625 0  0.90625 0.0625 0  0.921875 0.0625 0  0.9375 0.0625 0  0.953125 0.0625 0  0.96875 0.0625 0  0.984375 0.0625 0  1 0.0625 0  0 0.078125 0  0.015625 0.078125 0  0.03125 0.078125 0  0.046875 0.078125 0  0.0625 0.078125 0  0.078125 0.078125 0  0.09375 0.078125 0  0.109375 0.078125 0  0.125 0.078125 0  0.140625 0.078125 0  0.15625 0.078125 0  0.171875 0.078125 0  0.1875 0.078125 0  0.203125 0.078125 0  0.21875 0.078125 0  0.234375 0.078125 0  0.25 0.078125 0  0.265625 0.078125 0  0.28125 0.078125 0  0.296875 0.078125 0  0.3125 0.078125 0  0.328125 0.078125 0  0.34375 0.078125 0  0.359375 0.078125 0  0.375 0.078125 0  0.390625 0.078125 0  0.40625 0.078125 0  0.421875 0.078125 0  0.4375 0.078125 0  0.453125 0.078125 0  0.46875 0.078125 0  0.484375 0.078125 0  0.5 0.078125 0  0.515625 0.078125 0  0.53125 0.078125 0  0.546875 0.078125 0  0.5625 0.078125 0  0.578125 0.078125 0  0.59375 0.078125 0  0.609375 0.078125 0  0.625 0.078125 0  0.640625 0.078125 0  0.65625 0.078125 0  0.671875 0.078125 0  0.6875 0.078125 0  0.703125 0.078125 0  0.71875 0.078125 0  0.734375 0.078125 0  0.75 0.078125 0  0.765625 0.078125 0  0.78125 0.078125 0  0.796875 0.078125 0  0.8125 0.078125 0  0.828125 0.078125 0  0.84375 0.078125 0  0.859375 0.078125 0  0.875 0.078125 0  0.890625 0.078125 0  0.90625 0.078125 0  0.921875 0.078125 0  0.9375 0.078125 0  0.953125 0.078125 0  0.96875 0.078125 0  0.984375 0.078125 0  1 0.078125 0  0 0.09375 0  0.015625 0.09375 0  0.03125 0.09375 0  0.046875 0.09375 0  0.0625 0.09375 0  0.078125 0.09375 0  0.09375 0.09375 0  0.109375 0.09375 0  0.125 0.09375 0  0.140625 0.09375 0  0.15625 0.09375 0  0.171875 0.09375 0  0.1875 0.09375 0  0.203125 0.09375 0  0.21875 0.09375 0  0.234375 0.09375 0  0.25 0.09375 0  0.265625 0.09375 0  0.28125 0.09375 0  0.296875 0.09375 0  0.3125 0.09375 0  0.328125 0.09375 0  0.34375 0.09375 0  0.359375 0.09375 0  0.375 0.09375 0  0.390625 0.09375 0  0.40625 0.09375 0  0.421875 0.09375 0  0.4375 0.09375 0  0.453125 0.09375 0  0.46875 0.09375 0  0.484375 0.09375 0  0.5 0.09375 0  0.515625 0.09375 0  0.53125 0.09375 0  0.546875 0.09375 0  0.5625 0.09375 0  0.578125 0.09375 0  0.59375 0.09375 0  0.609375 0.09375 0  0.625 0.09375 0  0.640625 0.09375 0  0.65625 0.09375 0  0.671875 0.09375 0  0.6875 0.09375 0  0.703125 0.09375 0  0.71875 0.09375 0  0.734375 0.09375 0  0.75 0.09375 0  0.765625 0.09375 0  0.78125 0.09375 0  0.796875 0.09375 0  0.8125 0.09375 0  0.828125 0.09375 0  0.84375 0.09375 0  0.859375 0.09375 0  0.875 0.09375 0  0.890625 0.09375 0  0.90625 0.09375 0  0.921875 0.09375 0  0.9375 0.09375 0  0.953125 0.09375 0  0.96875 0.09375 0  0.984375 0.09375 0  1 0.09375 0  0 0.109375 0  0.015625 0.109375 0  0.03125 0.109375 0  0.046875 0.109375 0  0.0625 0.109375 0  0.078125 0.109375 0  0.09375 0.109375 0  0.109375 0.109375 0  0.125 0.109375 0  0.140625 0.109375 0  0.15625 0.109375 0  0.171875 0.109375 0  0.1875 0.109375 0  0.203125 0.109375 0  0.21875 0.109375 0  0.234375 0.109375 0  0.25 0.109375 0  0.265625 0.109375 0  0.28125 0.109375 0  0.296875 0.109375 0  0.3125 0.109375 0  0.328125 0.109375 0  0.34375 0.109375 0  0.359375 0.109375 0  0.375 0.109375 0  0.390625 0.109375 0  0.40625 0.109375 0  0.421875 0.109375 0  0.4375 0.109375 0  0.453125 0.109375 0  0.46875 0.109375 0  0.484375 0.109375 0  0.5 0.109375 0  0.515625 0.109375 0  0.53125 0.109375 0  0.546875 0.109375 0  0.5625 0.109375 0  0.578125 0.109375 0  0.59375 0.109375 0  0.609375 0.109375 0  0.625 0.109375 0  0.640625 0.109375 0  0.65625 0.109375 0  0.671875 0.109375 0  0.6875 0.109375 0  0.703125 0.109375 0  0.71875 0.109375 0  0.734375 0.109375 0  0.75 0.109375 0  0.765625 0.109375 0  0.78125 0.109375 0  0.796875 0.109375 0  0.8125 0.109375 0  0.828125 0.109375 0  0.84375 0.109375 0  0.859375 0.109375 0  0.875 0.109375 0  0.890625 0.109375 0  0.90625 0.109375 0  0.921875 0.109375 0  0.9375 0.109375 0  0.953125 0.109375 0  0.96875 0.109375 0  0.984375 0.109375 0  1 0.109375 0  0 0.125 0  0.015625 0.125 0  0.03125 0.125 0  0.046875 0.125 0  0.0625 0.125 0  0.078125 0.125 0  0.09375 0.125 0  0.109375 0.125 0  0.125 0.12
[...]
<PointData  Scalars="f_14"> 
<DataArray  type="Float64"  Name="f_14"  format="ascii">2.4242761896509316e-03  1.9388263664554927e-03  1.3577607154650925e-03  9.7121735940083919e-04  6.7159480492027840e-04  4.5837662273203741e-04  3.0574132865856662e-04  1.9993951839400895e-04  1.2784073826307494e-04  7.9921626136004897e-05  4.8785472050934977e-05  2.9055481642579249e-05  1.6865373550540586e-05  9.5318423529864633e-06  5.2395880254276066e-06  2.7982925313493414e-06  1.4503530260899752e-06  7.2869009491643191e-07  3.5447580562175481e-07  1.6675621788085652e-07  7.5769212070544222e-08  3.3210343613256160e-08  1.4023873777511565e-08  5.6978823860869045e-09  2.2245361078510477e-09  8.3343368605946592e-10  2.9924698042751358e-10  1.0283385153565686e-10  3.3776172481156389e-11  1.0589486344700024e-11  3.1648483960625117e-12  9.0046799342421257e-13  2.4357935399305162e-13  6.2557332112004214e-14  1.5232423908857997e-14  3.5113494124731620e-15  7.6516190430630308e-16  1.5746391132744520e-16  3.0675755322407890e-17  5.7843790740197016e-18  1.1960997291323843e-18  4.0396032871815158e-19  2.7626841277638165e-19  2.5717513836837132e-19  2.5461032380014382e-19  2.5438216711322977e-19  2.5446002474943864e-19  2.5457514662706385e-19  2.5469475006993735e-19  2.5481530692727339e-19  2.5493668026242502e-19  2.5505920270538614e-19  2.5518340939425340e-19  2.5531007200278520e-19  2.5544026351883991e-19  2.5557540689038555e-19  2.5571725006137710e-19  2.5586768114937861e-19  2.5602837497113319e-19  2.5620101386024978e-19  2.5639270001699084e-19  2.5664809960653544e-19  2.5719869832263412e-19  2.5908962051183326e-19  2.6668304525836383e-19  3.9677250412167115e-03  3.1526936891401874e-03  2.2196538780583897e-03  1.6375813246447654e-03  1.1506880682736376e-03  8.0478228026260434e-04  5.4842555882564880e-04  3.6731185238349240e-04  2.4050743209240335e-04  1.5415053258658281e-04  9.6523223552155354e-05  5.9021336145490894e-05  3.5199241932413318e-05  2.0456399141316460e-05  1.1572020152020071e-05  6.3653949660304362e-06  3.4008318871926829e-06  1.7627879552824062e-06  8.8543650363074074e-07  4.3046551495213454e-07  2.0230546303382816e-07  9.1795503457444902e-08  4.0162779139894697e-08  1.6921971918597882e-08  6.8569439195557145e-09  2.6686080285842788e-09  9.9616304832880662e-10  3.5619010145419357e-10  1.2182907922752301e-10  3.9806000557039297e-11  1.2407440672154438e-11  3.6842892800124478e-12  1.0407618042177452e-12  2.7928016175811501e-13  7.1079831797360671e-14  1.7129476507928054e-14  3.9016174272542128e-15  8.3836529188196664e-16  1.6971192689339527e-16  3.2444179072314486e-17  6.0069189981935593e-18  1.2428316606147778e-18  4.4185835685416409e-19  3.1665810961805725e-19  2.9859506522570447e-19  2.9628230028776791e-19  2.9611008700283612e-19  2.9620646794015381e-19  2.9633399665786639e-19  2.9646513132017167e-19  2.9659704354012682e-19  2.9672966461731222e-19  2.9686329361293768e-19  2.9699841494111464e-19  2.9713574258685781e-19  2.9727630510326720e-19  2.9742153547615724e-19  2.9757331424379484e-19  2.9773380331025398e-19  2.9790458094042899e-19  2.9808357219830682e-19  2.9825496217316606e-19  2.9835605323061027e-19  2.9816568514847500e-19  2.9691787477443559e-19  7.5899308723024785e-03  6.2348167152550555e-03  4.5455673209296296e-03  3.4389146037610767e-03  2.4802395577079939e-03  1.7850972203892720e-03  1.2506335507576993e-03  8.6256040059217169e-04  5.8167260932314834e-04  3.8433224556633764e-04  2.4821894955459714e-04  1.5666917742832338e-04  9.6507288772046371e-05  5.7971858604799954e-05  3.3919866537990402e-05  1.9312157713878541e-05  1.0686862324245895e-05  5.7414968322132163e-06  2.9911613097820977e-06  1.5092933535112278e-06  7.3669453169732891e-07  3.4740280803848279e-07  1.5807011470067489e-07  6.9305343036357233e-08  2.9241793912220641e-08  1.1856998923673708e-08  4.6140799728364961e-09  1.7208229901839637e-09  6.1421903779263962e-10  2.0952457078784097e-10  6.8210045410752026e-11  2.1160312221713488e-11  6.2457391035465291e-12  1.7511175689897333e-12  4.6551419482707933e-13  1.1710388557114264e-13  2.7814419337635455e-14  6.2226881252318838e-15  1.3079719105901507e-15  2.5776867588480245e-16  4.7695045235146212e-17  8.4763717096492656e-18  1.6635665474668179e-18  5.6573974132746240e-19  4.0218829050155092e-19  3.7982303502073613e-19  3.7712420764382388e-19  3.7694548685613439e-19  3.7706291552430699e-19  3.7721238201385348e-19  3.7736510155182767e-19  3.7751828163924628e-19  3.7767173011965073e-19  3.7782554930271524e-19  3.7797993996026361e-19  3.7813524693189688e-19  3.7829206641656826e-19  3.7845145487585327e-19  3.7861534051697200e-19  3.7878737460870044e-19  3.7897478958539837e-19  3.7919271094843052e-19  3.7947485977526472e-19  3.7990205758138336e-19  3.8068359109777726e-19  1.3715549261444082e-02  1.1446197813040369e-02  8.5555593044526531e-03  6.6245173326931082e-03  4.9070588023902113e-03  3.6271708197984573e-03  2.6109619784783827e-03  1.8522909068491697e-03  1.2853136171645425e-03  8.7467987327865388e-04  5.8216668180929192e-04  3.7897610260931498e-04  2.4093810013594500e-04  1.4948892194014332e-04  9.0408480116234197e-05  5.3244496532091248e-05  3.0500351351851817e-05  1.6975178643430533e-05  9.1682227528856146e-06  4.7994936809119541e-06  2.4322193591690316e-06  1.1916690714934571e-06  5.6375141036633035e-07  2.5717135254894151e-07  1.1297251968590746e-07  4.7724591007077242e-08  1.9360883517018065e-08  7.5319506311441839e-09  2.8058416867957668e-09  9.9942601246211958e-10  3.3986249671360716e-10  1.1015818684093355e-10  3.3972823638116258e-11  9.9497853925506722e-12  2.7614359343505410e-12  7.2453821041828532e-13  1.7924577462373514e-13  4.1692422931063638e-14  9.0902674367287703e-15  1.8522577438223078e-15  3.5186049642770608e-16  6.2384190456412671e-17  1.0565808670567384e-17  1.9852028801474168e-18  6.7451455314683829e-19  4.9041548476324064e-19  4.6680339813521668e-19  4.6416613391123305e-19  4.6403749174037103e-19  4.6418350486470873e-19  4.6435690671221578e-19  4.6453290292647631e-19  4.6470918836545799e-19  4.6488559851300953e-19  4.6506213997778494e-19  4.6523884853177474e-19  4.6541577201143991e-19  4.6559296607022753e-19  4.6577046534663149e-19  4.6594818878080998e-19  4.6612565800730776e-19  4.6630120350863108e-19  4.6646976332266856e-19  4.6661676416205602e-19  4.6670084888572293e-19  2.3833819317921175e-02  2.0228825879237879e-02  1.5554073707921716e-02  1.2331376756359173e-02  9.3814676928765054e-03  7.1159401648690675e-03  5.2637130420996481e-03  3.8391528958016318e-03  2.7408427230355848e-03  1.9204482712536215e-03  1.3169678420228200e-03  8.8398822188741311e-04  5.7990807907202428e-04  3.7154454356859895e-04  2.3221042252889769e-04  1.4143166978696861e-04  8.3849941984192989e-05  4.8335509047013184e-05  2.7059349860123517e-05  1.4693754130764376e-05  7.7297782737812824e-06  3.9342772652401658e-06  1.9348834716026290e-06  9.1823541637774609e-07  4.1992009035555926e-07  1.8479312219762957e-07  7.8143239840179386e-08  3.1706541867559325e-08  1.2325445370349677e-08  4.5831838095420630e-09  1.6274684554766173e-09  5.5086478649435959e-10  1.7737233008038336e-10  5.4206570511903233e-11  1.5683456225531246e-11  4.2838568376787139e-12  1.1012973232005431e-12  2.6561090089816621e-13  5.9898267356295773e-14  1.2588536200633935e-14  2.4579788419342668e-15  4.4484076166540223e-16  7.4739203401102922e-17  1.1972774366916519e-17  2.1784195245438066e-18  7.7554424765164342e-19  5.9158800666078940e-19  5.6968696243191276e-19  5.6746586305265476e-19  5.6742686083123956e-19  5.6760789008130275e-19  5.6780933819345348e-19  5.6801251931652281e-19  5.6821591495130168e-19  5.6841939363440612e-19  5.6862295740439360e-19  5.6882661415417493e-19  5.6903038421843192e-19  5.6923430942923155e-19  5.6943848542535308e-19  5.6964314235227527e-19  5.6984885790954917e-19  5.7005712416441448e-19  5.7027187462369199e-19  5.7050365232640602e-19  3.9747230683292223e-02  3.4302123298111151e-02  2.7110285245040361e-02  2.1985159491275257e-02  1.7170913900166899e-02  1.3360265760797204e-02  1.0153311932969885e-02  7.6102229362924410e-03  5.5885018729970115e-03  4.0303719998052582e-03  2.8469603343698625e-03  1.9698769506130481e-03  1.3331084946329435e-03  8.8178524556750660e-04  5.6939188029178655e-04  3.5858245176487511e-04  2.1998496781801711e-04  1.3132282180432098e-04  7.6192051194413758e-05  4.2911794517621870e-05  2.3431113138289515e-05  1.2387945501371126e-05  6.3331344722145036e-06  3.1265223670153431e-06  1.4884090066456253e-06  6.8230858825964084e-07  3.0074467642360547e-07  1.2726539166170138e-07  5.1620141786900851e-08  2.0034347480357120e-08  7.4260356577259988e-09  2.6233031106820880e-09  8.8108225622426891e-10  2.8060641607680674e-10  8.4488453262461542e-11  2.3972119992190563e-11  6.3875167984056599e-12  1.5927267147326838e-12  3.7034583839338909e-13  8.0030663657509141e-14  1.6021643769970380e-14  2.9630306296222447e-15  5.0527553181202584e-16  7.9676421215323214e-17  1.2026901533022990e-17  2.1770856522162609e-18  8.6578970542814864e-19  7.0658966872141988e-19  6.8914470227688441e-19  6.8759441863507836e-19  6.8766402693105202e-19  6.8788447350412363e-19  6.8811753656797741e-19  6.8835169501225704e-19  6.8858598590604066e-19  6.8882036709267112e-19  6.8905482875238187e-19  6.8928937406647378e-19  6.8952400214431191e-19  6.8975870718888315e-19  6.8999346250313158e-19  6.9022817802904123e-19  6.9046257782871282e-19  6.9069585665174448e-19  6.9092572250570401e-19  6.3578430037738332e-02  5.5782351123882835e-02  4.5290221503016440e-02  3.7561126614693435e-02  3.0107788067308648e-02  2.4021911364385418e-02  1.8748903814132870e-02  1.4436228821824937e-02  1.0901075479049930e-02  8.0891182076184200e-03  5.8840347703258897e-03  4.1955431770878395e-03  2.9282652008167072e-03  1.9991184750048022e-03  1.3333959410503711e-03  8.6806191159694598e-04  5.5094996399416445e-04  3.4053408675451338e-04  2.0472684586503645e-04  1.1957171610567157e-04  6.7759589624055634e-05  3.7208190756438457e-05  1.9771934165775064e-05  1.0153244052735111e-05  5.0313953032430275e-06  2.4024938627058231e-06  1.1037230126204152e-06  4.8705351100558617e-07  2.0608670793024595e-07  8.3452418808096675e-08  3.2269865887512020e-08  1.1886378135902325e-08  4.1588820802942664e-09  1.3778901817348546e-09  4.3079783705822076e-10  1.2664064759901593e-10  3.4873104928906948e-11  8.9621637690247106e-12  2.1418258256306202e-12  4.7440062330431866e-13  9.7086764461065920e-14  1.8307858219804577e-14  3.1737928848345389e-15  5.0522297216124785e-16  7.4232229793351864e-17  1.0591120692726678e-17  2.0122197150176295e-18  9.5810995743070558e-19  8.4034242678486819e-19  8.2859343748236473e-19  8.2774805639992618e-19  8.2792394196583558e-19  8.2818591802622936e-19  8.2845482477353464e-19  8.2872422694128651e-19  8.2899376815056415e-19  8.2926339358041112e-19  8.2953311101004614e-19  8.2980291854164099e-19  8.3007282075584836e-19  8.3034282703400964e-19  8.3061296405515404e-19  8.3088330474884236e-19  8.3115405048196117e-19  8.3142575819038013e-19  9.7478519424498158e-02  8.6935089311753186e-02  7.2467503217017060e-02  6.1446144434249748e-02  5.0524266840099079e-02  4.1321588202780625e-02  3.3109452826445188e-02  2.6179773588951408e-02  2.0321097565124176e-02  1.5510052469888539e-02  1.1614157460430029e-02  8.5314050836588634e-03  6.1392226684036516e-03  4.3246612475633323e-03  2.9787474372397096e-03  2.0041728423534533e-03  1.3157070848339788e-03  8.4182654613995168e-04  5.2433004462332157e-04  3.1752485905232403e-04  1.8671901860547828e-04  1.0648043878397797e-04  5.8807495445517926e-05  3.1410111684142199e-05  1.6201218682554910e-05  8.0575815439022936e-06  3.8577554022930458e-06  1.7748876724246345e-06  7.8317764636133747e-07  3.3070110536816949e-07  1.3328713563679022e-07  5.1127034270620326e-08  1.8603532016111548e-08  6.3981659991139113e-09  2.0718741475057331e-09  6.2922282150873026e-10  1.7851492337846149e-10  4.7133819847406113e-11  1.1540979378833748e-11  2.6121699353453614e-12  5.4494483538640698e-13  1.0451807182157346e-13  1.8389399382834316e-14  2.9630463905478100e-15  4.3712578485162644e-16  5.9607263426661540e-17  8.1722308336958482e-18  1.7914199278182544e-18  1.0714452642680299e-18  9.9786398341956179e-19  9.9127953586360052e-19  9.9100693898562109e-19  9.9127084368559537e-19  9.9157718687584409e-19  9.9188633448912173e-19  9.9219584505769744e-19  9.9250544133503964e-19  9.9281514677543058e-19  9.9312494859360010e-19  9.9343484967178866e-19  9.9374484649444148e-19  9.9405493380550719e-19  9.9436509562697081e-19  9.9467528744627224e-19  9.9498538376505308e-19  1.4315495188694735e-01  1.2975077254149220e-01  1.1097879074533802e-01  9.6177119426927735e-02  8.1082868526157995e-02  6.7951665261823432e-02  5.5872749230303158e-02  4.5351269298157026e-02  3.6171925706696480e-02  2.8386925342734577e-02  2.1874777833287482e-02  1.6548307711498057e-02  1.2273878432184094e-02  8.9187237096198576e-03  6.3419882418153410e-03  4.4088474795999470e-03  2.9930168425548109e-03  1.9819573692526236e-03  1.2786778105447845e-03  8.0275017719258284e-04  4.8977559735493463e-04  2.9002760285677209e-04  1.6646027524004891e-04  9.2467744033741472e-05  4.9639096539307768e-05  2.5710605792178414e-05  1.2826002218555570e-05  6.1504295209718618e-06  2.8286303049999213e-06  1.2444339655611421e-06  5.2213935867658513e-07  2.0822697193473974e-07  7.8629218529642931e-08  2.8001047732156488e-08  9.3648265477554851e-09  2.9292791362189900e-09  8.5354161317581827e-10  2.3081916524909496e-10  5.7733184191215232e-11  1.3315792206494831e-11  2.8244768802114030e-12  5.4971142400442280e-13  9.7970909488649833e-14  1.5962794122673678e-14  2.3750797046863311e-15  3.2308048349905524e-16  4.0935084796404020e-17  5.6476192876779021e-18  1.6362263937542781e-18  1.2223679402653189e-18  1.1838701527035890e-18  1.1809253829696506e-18  1.1810231142209297e-18  1.1813604553886608e-18  1.1817138372881799e-18  1.1820686727705918e-18  1.1824235923278421e-18  1.1827786599181091e-18  1.1831338297433312e-18  1.1834891154991680e-18  1.1838445122837463e-18  1.1842000226397231e-18  1.1845556493717611e-18  1.1849114028458237e-18  1.1852673121324032e-18  2.0123217120359113e-01  1.8532242185647888e-01  1.6254566082770078e-01  1.4392462556436411e-01  1.2434425332994653e-01  1.0673886717540977e-01  9.0023103736236398e-02  7.4980666063616072e-02  6.1426751570616521e-02  4.9547561982974303e-02  3.9277005266742430e-02  3.0589614189994532e-02  2.3377203945754283e-02  1.7516954272588713e-02  1.2855637427845915e-02  9.2314807113649741e-03  6.4789541656069339e-03  4.4392656620337069e-03  2.9660091215799522e-03  1.9300061586790197e-03  1.2215543058300266e-03  7.5102997084522047e-04  4.4790488220621883e-04  2.5873730141945899e-04  1.4454072297411549e-04  7.7951797675884112e-05  4.0505871236321876e-05  2.0234262510641720e-05  9.6915088722299824e-06  4.4370814187734999e-06  1.9349810783692550e-06  8.0061655953827582e-07  3.1297186749550376e-07  1.1508437533442527e-07  3.9633145712249741e-08  1.2729197653734448e-08  3.7978027246866937e-09  1.0488036948318122e-09  2.6723743045531095e-10  6.2650481292554135e-11  1.3481019914403876e-11  2.6569958736589255e-12  4.7880919993359593e-13  7.8775912718317767e-14  1.1818627204328838e-14  1.6160967164671590e-15  2.0217846123093291e-16  2.4102612350703563e-17  3.7326743841347236e-18  1.6180892549848844e-18  1.4191650709112519e-18  1.4025575864808253e-18  1.4016378248517434e-18  1.4019529752487195e-18  1.4023523702529108e-18  1.4027583841098087e-18  1.4031645349169290e-18  1.4035709402573795e-18  1.4039774369026138e-18  1.4043840728382356e-18  1.4047908300461019e-18  1.4051977133475253e-18  1.4056047192862226e-18  1.4060118455748367e-18  1.4064190847062095e-18  2.7056450008073119e-01  2.5312131565381357e-01  2.2752148631532235e-01  2.0575085009131322e-01  1.8207081116509577e-01  1.6002254143260689e-01  1.3837005742815636e-01  1.1821232052092108e-01  9.9428727160470520e-02  8.2398913159073370e-02  6.7167290100868887e-02  5.3834128451275276e-02  4.2375141330135431e-02  3.2732222824699030e-02  2.4784725835474600e-02  1.8378522237631510e-02  1.3331342478113021e-02  9.4491324809112959e-03  6.5365633319141008e-03  4.4077350639790671e-03  2.8935471714671337e-03  1.8467580197052487e-03  1.1442815586278085e-03  6.8727775948366804e-04  3.9945982277338351e-04  2.2424537360066189e-04  1.2131562722779924e-04  6.3083016627421058e-05  3.1431501354903235e-05  1.4952480578430004e-05  6.7638862710388953e-06  2.8966867340571481e-06  1.1690486303902424e-06  4.4257520683520525e-07  1.5646933760044871e-07  5.1445504378651246e-08  1.5670830994691166e-08  4.4075198361644270e-09  1.1412197859923575e-09  2.7133652102459965e-10  5.9110372758095598e-11  1.1776928129867372e-11  2.1425688494327544e-12  3.5546951396388756e-13  5.3723291643591252e-14  7.3905480906456019e-15  9.2581880804447667e-16  1.0670205273771314e-16  1.2500308401649165e-17  2.6727985570270392e-18  1.7431155972863210e-18  1.6638494081519245e-18  1.6580900932641713e-18  1.6581230322140651e-18  1.6585567084423371e-18  1.6590198621180354e-18  1.6594836564486603e-18  1.6599480393180314e-18  1.6604124476118267e-18  1.6608770422520430e-18  1.6613417643138859e-18  1.6618066324700172e-18  1.6622716392561762e-18  1.6627367867964335e-18  1.6632020751811867e-18  3.4770357210960007e-01  3.3035812008319554e-01  3.0412095511321230e-01  2.8076332905311990e-01  2.5433993348447209e-01  2.2877228327658106e-01  2.0271353573520032e-01  1.7755612281941807e-01  1.5326038736325628e-01  1.3043671223342448e-01  1.0928864254575454e-01  9.0108669622648324e-02  7.3027864807183332e-02  5.8129108119325576e-02  4.5396934106434521e-02  3.4750572844283990e-02  2.6045051026666006e-02  1.9091326414674432e-02  1.3670425349156856e-02  9.5506139373441028e-03  6.5016099484047820e-03  4.3068078833433041e-03  2.7719932106947251e-03  1.7307020913344313e-03  1.0462611750925970e-03  6.1108725553291759e-04  3.4394443398235401e-04  1.8597448577228456e-04  9.6254190078747030e-05  4.7488005705365491e-05  2.2231285914878898e-05  9.8282068194539491e-06  4.0832412600137671e-06  1.5867540198730840e-06  5.7420499754050407e-07  1.9271972466363713e-07  5.9776218943824317e-08  1.7080936230828937e-08  4.4843779375275965e-09  1.0791934247470425e-09  2.3760510239721616e-10  4.7781322073442875e-11  8.7641003763911385e-12  1.4645413086573089e-12  2.2275235780568180e-13  3.0813109919447215e-14  3.8751685266476524e-15  4.4420241169101344e-16  4.7795035226744282e-17  6.2659858100424168e-18  2.3215486118880354e-18  1.9826968890149653e-18  1.9566831275662964e-18  1.9553602063074694e-18  1.9557623145694695e-18  1.9562869184748600e-18  1.9568150062621522e-18  1.9573447574433703e-18  1.9578742971402882e-18  1.9584041390024259e-18  1.9589340943893759e-18  1.9594642252718083e-18  1.9599945079378751e-18  1.9605249487419363e-18  1.9610555437180289e-18  4.2676533053673121e-01  4.1168309783393808e-01  3.8788678798631765e-01  3.6540342100475282e-01  3.3867363333750566e-01  3.1160746622114732e-01  2.8280317936498922e-01  2.5384202243904491e-01  2.2474811962464203e-01  1.9634939724611244e-01  1.6902486462595026e-01  1.4330105017850070e-01  1.1952586748265191e-01  9.8002773178715460e-02  7.8910453655806553e-02  6.2334401556988384e-02  4.8255847584074620e-02  3.6569890487456597e-02  2.7098120025444476e-02  1.9609369297585045e-02  1.3839743948759713e-02  9.5130665208684323e-03  6.3586424408210909e-03  4.1256230606578253e-03  2.5929236903365588e-03  1.5746154423897714e-03  9.2113539731841787e-04  5.1720117319680847e-04  2.7755779321651537e-04  1.4169904361635685e-04  6.8474294043077642e-05  3.1161711442379403e-05  1.3288734984988497e-05  5.2853638454468313e-06  1.9522326039531123e-06  6.6710381153706229e-07  2.1018906095819465e-07  6.0888230635460882e-08  1.6177090054766032e-08  3.9338100082007932e-09  8.7401226439191257e-10  1.7716604717927069e-10  3.2724522654190293e-11  5.5024254034093604e-12  8.4149977728403911e-13  1.1696877295773626e-13  1.4770217903864461e-14  1.6951307302537125e-15  1.7839258555656620e-16  1.8916887577644538e