<?xml version="1.0"?>
<VTKFile type="UnstructuredGrid"  version="0.1"  >
<UnstructuredGrid>
<Piece  NumberOfPoints="4225" NumberOfCells="8192">
<Points>
<DataArray  type="Float64"  NumberOfComponents="3"  format="ascii">0 0 0  0.015625 0 0  0.03125 0 0  0.046875 0 0  0.0625 0 0  0.078125 0 0  0.09375 0 0  0.109375 0 0  0.125 0 0  0.140625 0 0  0.15625 0 0  0.171875 0 0  0.1875 0 0  0.203125 0 0  0.21875 0 0  0.234375 0 0  0.25 0 0  0.265625 0 0  0.28125 0 0  0.296875 0 0  0.3125 0 0  0.328125 0 0  0.34375 0 0  0.359375 0 0  0.375 0 0  0.390625 0 0  0.40625 0 0  0.421875 0 0  0.4375 0 0  0.453125 0 0  0.46875 0 0  0.484375 0 0  0.5 0 0  0.515625 0 0  0.53125 0 0  0.546875 0 0  0.5625 0 0  0.578125 0 0  0.59375 0 0  0.609375 0 0  0.625 0 0  0.640625 0 0  0.65625 0 0  0.671875 0 0  0.6875 0 0  0.703125 0 0  0.71875 0 0  0.734375 0 0  0.75 0 0  0.765625 0 0  0.78125 0 0  0.796875 0 0  0.8125 0 0  0.828125 0 0  0.84375 0 0  0.859375 0 0  0.875 0 0  0.890625 0 0  0.90625 0 0  0.921875 0 0  0.9375 0 0  0.953125 0 0  0.96875 0 0  0.984375 0 0  1 0 0  0 0.015625 0  0.015625 0.015625 0  0.03125 0.015625 0  0.046875 0.015625 0  0.0625 0.015625 0  0.078125 0.015625 0  0.09375 0.015625 0  0.109375 0.015625 0  0.125 0.015625 0  0.140625 0.015625 0  0.15625 0.015625 0  0.171875 0.015625 0  0.1875 0.015625 0  0.203125 0.015625 0  0.21875 0.015625 0  0.234375 0.015625 0  0.25 0.015625 0  0.265625 0.015625 0  0.28125 0.015625 0  0.296875 0.015625 0  0.3125 0.015625 0  0.328125 0.015625 0  0.34375 0.015625 0  0.359375 0.015625 0  0.375 0.015625 0  0.390625 0.015625 0  0.40625 0.015625 0  0.421875 0.015625 0  0.4375 0.015625 0  0.453125 0.015625 0  0.46875 0.015625 0  0.484375 0.015625 0  0.5 0.015625 0  0.515625 0.015625 0  0.53125 0.015625 0  0.546875 0.015625 0  0.5625 0.015625 0  0.578125 0.015625 0  0.59375 0.015625 0  0.609375 0.015625 0  0.625 0.015625 0  0.640625 0.015625 0  0.65625 0.015625 0  0.671875 0.015625 0  0.6875 0.015625 0  0.703125 0.015625 0  0.71875 0.015625 0  0.734375 0.015625 0  0.75 0.015625 0  0.765625 0.015625 0  0.78125 0.015625 0  0.796875 0.015625 0  0.8125 0.015625 0  0.828125 0.015625 0  0.84375 0.015625 0  0.859375 0.015625 0  0.875 0.015625 0  0.890625 0.015625 0  0.90625 0.015625 0  0.921875 0.015625 0  0.9375 0.015625 0  0.953125 0.015625 0  0.96875 0.015625 0  0.984375 0.015625 0  1 0.015625 0  0 0.03125 0  0.015625 0.03125 0  0.03125 0.03125 0  0.046875 0.03125 0  0.0625 0.03125 0  0.078125 0.03125 0  0.09375 0.03125 0  0.109375 0.03125 0  0.125 0.03125 0  0.140625 0.03125 0  0.15625 0.03125 0  0.171875 0.03125 0  0.1875 0.03125 0  0.203125 0.03125 0  0.21875 0.03125 0  0.234375 0.03125 0  0.25 0.03125 0  0.265625 0.03125 0  0.28125 0.03125 0  0.296875 0.03125 0  0.3125 0.03125 0  0.328125 0.03125 0  0.34375 0.03125 0  0.359375 0.03125 0  0.375 0.03125 0  0.390625 0.03125 0  0.40625 0.03125 0  0.421875 0.03125 0  0.4375 0.03125 0  0.453125 0.03125 0  0.46875 0.03125 0  0.484375 0.03125 0  0.5 0.03125 0  0.515625 0.03125 0  0.53125 0.03125 0  0.546875 0.03125 0  0.5625 0.03125 0  0.578125 0.03125 0  0.59375 0.03125 0  0.609375 0.03125 0  0.625 0.03125 0  0.640625 0.03125 0  0.65625 0.03125 0  0.671875 0.03125 0  0.6875 0.03125 0  0.703125 0.03125 0  0.71875 0.03125 0  0.734375 0.03125 0  0.75 0.03125 0  0.765625 0.03125 0  0.78125 0.03125 0  0.796875 0.03125 0  0.8125 0.03125 0  0.828125 0.03125 0  0.84375 0.03125 0  0.859375 0.03125 0  0.875 0.03125 0  0.890625 0.03125 0  0.90625 0.03125 0  0.921875 0.03125 0  0.9375 0.03125 0  0.953125 0.03125 0  0.96875 0.03125 0  0.984375 0.03125 0  1 0.03125 0  0 0.046875 0  0.015625 0.046875 0  0.03125 0.046875 0  0.046875 0.046875 0  0.0625 0.046875 0  0.078125 0.046875 0  0.09375 0.046875 0  0.109375 0.046875 0  0.125 0.046875 0  0.140625 0.046875 0  0.15625 0.046875 0  0.171875 0.046875 0  0.1875 0.046875 0  0.203125 0.046875 0  0.21875 0.046875 0  0.234375 0.046875 0  0.25 0.046875 0  0.265625 0.046875 0  0.28125 0.046875 0  0.296875 0.046875 0  0.3125 0.046875 0  0.328125 0.046875 0  0.34375 0.046875 0  0.359375 0.046875 0  0.375 0.046875 0  0.390625 0.046875 0  0.40625 0.046875 0  0.421875 0.046875 0  0.4375 0.046875 0  0.453125 0.046875 0  0.46875 0.046875 0  0.484375 0.046875 0  0.5 0.046875 0  0.515625 0.046875 0  0.53125 0.046875 0  0.546875 0.046875 0  0.5625 0.046875 0  0.578125 0.046875 0  0.59375 0.046875 0  0.609375 0.046875 0  0.625 0.046875 0  0.640625 0.046875 0  0.65625 0.046875 0  0.671875 0.046875 0  0.6875 0.046875 0  0.703125 0.046875 0  0.71875 0.046875 0  0.734375 0.046875 0  0.75 0.046875 0  0.765625 0.046875 0  0.78125 0.046875 0  0.796875 0.046875 0  0.8125 0.046875 0  0.828125 0.046875 0  0.84375 0.046875 0  0.859375 0.046875 0  0.875 0.046875 0  0.890625 0.046875 0  0.90625 0.046875 0  0.921875 0.046875 0  0.9375 0.046875 0  0.953125 0.046875 0  0.96875 0.046875 0  0.984375 0.046875 0  1 0.046875 0  0 0.0625 0  0.015625 0.0625 0  0.03125 0.0625 0  0.046875 0.0625 0  0.0625 0.0625 0  0.078125 0.0625 0  0.09375 0.0625 0  0.109375 0.0625 0  0.125 0.0625 0  0.140625 0.0625 0  0.15625 0.0625 0  0.171875 0.0625 0  0.1875 0.0625 0  0.203125 0.0625 0  0.21875 0.0625 0  0.234375 0.0625 0  0.25 0.0625 0  0.265625 0.0625 0  0.28125 0.0625 0  0.296875 0.0625 0  0.3125 0.0625 0  0.328125 0.0625 0  0.34375 0.0625 0  0.359375 0.0625 0  0.375 0.0625 0  0.390625 0.0625 0  0.40625 0.0625 0  0.421875 0.0625 0  0.4375 0.0625 0  0.453125 0.0625 0  0.46875 0.0625 0  0.484375 0.0625 0  0.5 0.0625 0  0.515625 0.0625 0  0.53125 0.0625 0  0.546875 0.0625 0  0.5625 0.0625 0  0.578125 0.0625 0  0.59375 0.0625 0  0.609375 0.0625 0  0.625 0.0625 0  0.640625 0.0625 0  0.65625 0.0625 0  0.671875 0.0625 0  0.6875 0.0625 0  0.703125 0.0625 0  0.71875 0.0625 0  0.734375 0.0625 0  0.75 0.0625 0  0.765625 0.0625 0  0.78125 0.0625 0  0.796875 0.0625 0  0.8125 0.0625 0  0.828125 0.0625 0  0.84375 0.0625 0  0.859375 0.0625 0  0.875 0.0625 0  0.890625 0.0625 0  0.90625 0.0625 0  0.921875 0.0625 0  0.9375 0.0625 0  0.953125 0.0625 0  0.96875 0.0625 0  0.984375 0.0625 0  1 0.0625 0  0 0.078125 0  0.015625 0.078125 0  0.03125 0.078125 0  0.046875 0.078125 0  0.0625 0.078125 0  0.078125 0.078125 0  0.09375 0.078125 0  0.109375 0.078125 0  0.125 0.078125 0  0.140625 0.078125 0  0.15625 0.078125 0  0.171875 0.078125 0  0.1875 0.078125 0  0.203125 0.078125 0  0.21875 0.078125 0  0.234375 0.078125 0  0.25 0.078125 0  0.265625 0.078125 0  0.28125 0.078125 0  0.296875 0.078125 0  0.3125 0.078125 0  0.328125 0.078125 0  0.34375 0.078125 0  0.359375 0.078125 0  0.375 0.078125 0  0.390625 0.078125 0  0.40625 0.078125 0  0.421875 0.078125 0  0.4375 0.078125 0  0.453125 0.078125 0  0.46875 0.078125 0  0.484375 0.078125 0  0.5 0.078125 0  0.515625 0.078125 0  0.53125 0.078125 0  0.546875 0.078125 0  0.5625 0.078125 0  0.578125 0.078125 0  0.59375 0.078125 0  0.609375 0.078125 0  0.625 0.078125 0  0.640625 0.078125 0  0.65625 0.078125 0  0.671875 0.078125 0  0.6875 0.078125 0  0.703125 0.078125 0  0.71875 0.078125 0  0.734375 0.078125 0  0.75 0.078125 0  0.765625 0.078125 0  0.78125 0.078125 0  0.796875 0.078125 0  0.8125 0.078125 0  0.828125 0.078125 0  0.84375 0.078125 0  0.859375 0.078125 0  0.875 0.078125 0  0.890625 0.078125 0  0.90625 0.078125 0  0.921875 0.078125 0  0.9375 0.078125 0  0.953125 0.078125 0  0.96875 0.078125 0  0.984375 0.078125 0  1 0.078125 0  0 0.09375 0  0.015625 0.09375 0  0.03125 0.09375 0  0.046875 0.09375 0  0.0625 0.09375 0  0.078125 0.09375 0  0.09375 0.09375 0  0.109375 0.09375 0  0.125 0.09375 0  0.140625 0.09375 0  0.15625 0.09375 0  0.171875 0.09375 0  0.1875 0.09375 0  0.203125 0.09375 0  0.21875 0.09375 0  0.234375 0.09375 0  0.25 0.09375 0  0.265625 0.09375 0  0.28125 0.09375 0  0.296875 0.09375 0  0.3125 0.09375 0  0.328125 0.09375 0  0.34375 0.09375 0  0.359375 0.09375 0  0.375 0.09375 0  0.390625 0.09375 0  0.40625 0.09375 0  0.421875 0.09375 0  0.4375 0.09375 0  0.453125 0.09375 0  0.46875 0.09375 0  0.484375 0.09375 0  0.5 0.09375 0  0.515625 0.09375 0  0.53125 0.09375 0  0.546875 0.09375 0  0.5625 0.09375 0  0.578125 0.09375 0  0.59375 0.09375 0  0.609375 0.09375 0  0.625 0.09375 0  0.640625 0.09375 0  0.65625 0.09375 0  0.671875 0.09375 0  0.6875 0.09375 0  0.703125 0.09375 0  0.71875 0.09375 0  0.734375 0.09375 0  0.75 0.09375 0  0.765625 0.09375 0  0.78125 0.09375 0  0.796875 0.09375 0  0.8125 0.09375 0  0.828125 0.09375 0  0.84375 0.09375 0  0.859375 0.09375 0  0.875 0.09375 0  0.890625 0.09375 0  0.90625 0.09375 0  0.921875 0.09375 0  0.9375 0.09375 0  0.953125 0.09375 0  0.96875 0.09375 0  0.984375 0.09375 0  1 0.09375 0  0 0.109375 0  0.015625 0.109375 0  0.03125 0.109375 0  0.046875 0.109375 0  0.0625 0.109375 0  0.078125 0.109375 0  0.09375 0.109375 0  0.109375 0.109375 0  0.125 0.109375 0  0.140625 0.109375 0  0.15625 0.109375 0  0.171875 0.109375 0  0.1875 0.109375 0  0.203125 0.109375 0  0.21875 0.109375 0  0.234375 0.109375 0  0.25 0.109375 0  0.265625 0.109375 0  0.28125 0.109375 0  0.296875 0.109375 0  0.3125 0.109375 0  0.328125 0.109375 0  0.34375 0.109375 0  0.359375 0.109375 0  0.375 0.109375 0  0.390625 0.109375 0  0.40625 0.109375 0  0.421875 0.109375 0  0.4375 0.109375 0  0.453125 0.109375 0  0.46875 0.109375 0  0.484375 0.109375 0  0.5 0.109375 0  0.515625 0.109375 0  0.53125 0.109375 0  0.546875 0.109375 0  0.5625 0.109375 0  0.578125 0.109375 0  0.59375 0.109375 0  0.609375 0.109375 0  0.625 0.109375 0  0.640625 0.109375 0  0.65625 0.109375 0  0.671875 0.109375 0  0.6875 0.109375 0  0.703125 0.109375 0  0.71875 0.109375 0  0.734375 0.109375 0  0.75 0.109375 0  0.765625 0.109375 0  0.78125 0.109375 0  0.796875 0.109375 0  0.8125 0.109375 0  0.828125 0.109375 0  0.84375 0.109375 0  0.859375 0.109375 0  0.875 0.109375 0  0.890625 0.109375 0  0.90625 0.109375 0  0.921875 0.109375 0  0.9375 0.109375 0  0.953125 0.109375 0  0.96875 0.109375 0  0.984375 0.109375 0  1 0.109375 0  0 0.125 0  0.015625 0.125 0  0.03125 0.125 0  0.046875 0.125 0  0.0625 0.125 0  0.078125 0.125 0  0.09375 0.125 0  0.109375 0.125 0  0.125 0.12
[...]
<PointData  Scalars="f_14"> 
<DataArray  type="Float64"  Name="f_14"  format="ascii">-1.8290564604843716e-17  -1.8312563571314694e-17  -1.8323684231914339e-17  -1.8319514349484339e-17  -1.8300982751953713e-17  -1.8270392275606777e-17  -1.8230745872797971e-17  -1.8185642721777367e-17  -1.8139536401767758e-17  -1.8099472225113178e-17  -1.8082059586205001e-17  -1.8137174009765361e-17  -1.8420137734987666e-17  -1.9391110869215516e-17  -2.2256325572598740e-17  -2.9915769878343922e-17  -4.8523650448040299e-17  -8.9589638064984753e-17  -1.7179847003437282e-16  -3.2085862855558893e-16  -5.6532074208107034e-16  -9.2746235482779665e-16  -1.4113168442960067e-15  -1.9932873918670245e-15  -2.6216667200365200e-15  -3.2278277661965310e-15  -3.7453220004296148e-15  -4.1281760420610860e-15  -4.3601993112626700e-15  -4.4526755153072507e-15  -4.4340632385957885e-15  -4.3380688761967076e-15  -4.1949436152772827e-15  -4.0275159201598315e-15  -3.8509008901598952e-15  -3.6740445670831174e-15  -3.5016777039608680e-15  -3.3359693266784781e-15  -3.1776843830094034e-15  -3.0268957338067922e-15  -2.8833754089031492e-15  -2.7467869071041370e-15  -2.6167690542744932e-15  -2.4929679841610751e-15  -2.3750472747543514e-15  -2.2626900777259870e-15  -2.1555986898117439e-15  -2.0534934668316442e-15  -1.9561116396462624e-15  -1.8632061696162804e-15  -1.7745447139392317e-15  -1.6899085651238172e-15  -1.6090919647698350e-15  -1.5319006019513650e-15  -1.4581527610112679e-15  -1.3876728896349875e-15  -1.3203078832725154e-15  -1.2558758243774020e-15  -1.1943172999024291e-15  -1.1352383954371041e-15  -1.0792880990001854e-15  -1.0240242461449662e-15  -9.7637398972422468e-16  -9.1704244852628118e-16  -8.9248590284484481e-16  -1.8382716992673898e-17  -1.8379124125603131e-17  -1.8393237063798273e-17  -1.8400237073879163e-17  -1.8394494319559475e-17  -1.8376512297333999e-17  -1.8348365036261434e-17  -1.8312758263729108e-17  -1.8272949385823179e-17  -1.8232969699272061e-17  -1.8198263991203180e-17  -1.8175748611890539e-17  -1.8166167577538455e-17  -1.8121322365604379e-17  -1.7761894115283536e-17  -1.6071105353539034e-17  -1.0089363223307595e-17  7.2756654156509333e-18  5.0081270602374130e-17  1.4092170782324290e-16  3.0740317285121408e-16  5.6948778750728731e-16  9.1799834073057713e-16  1.2935535238624474e-15  1.5829971182256175e-15  1.6473215168638484e-15  1.3771074783511711e-15  7.4874298635008739e-16  -1.5325067265157667e-16  -1.1646845104138605e-15  -2.1057401993453655e-15  -2.8441391503058357e-15  -3.3263157325807525e-15  -3.5697797701768857e-15  -3.6322458630873860e-15  -3.5793356816316297e-15  -3.4644624410106356e-15  -3.3226888927663030e-15  -3.1733677504115418e-15  -3.0256052940782408e-15  -2.8830080857807737e-15  -2.7466751427710609e-15  -2.6167223866330636e-15  -2.4929373958471320e-15  -2.3750213013184428e-15  -2.2626662167647474e-15  -2.1555763737704487e-15  -2.0534725123915349e-15  -1.9560919390464224e-15  -1.8631876361698806e-15  -1.7745272645632586e-15  -1.6898921387915832e-15  -1.6090764609404714e-15  -1.5318860571665091e-15  -1.4581388271705566e-15  -1.3876603759698117e-15  -1.3202941657566691e-15  -1.2558685611726211e-15  -1.1942932376863709e-15  -1.1352670696224458e-15  -1.0791578690160232e-15  -1.0243575670162798e-15  -9.7525901399813854e-16  -9.1925961239215950e-16  -8.8776762756795984e-16  -1.8381003508004277e-17  -1.8401770786071335e-17  -1.8406182399132461e-17  -1.8408641046240446e-17  -1.8402119392851202e-17  -1.8384229139819646e-17  -1.8356023439744770e-17  -1.8319659621331285e-17  -1.8276005158195725e-17  -1.8215908201309890e-17  -1.8080312159002072e-17  -1.7592749633453063e-17  -1.5638092192516802e-17  -8.2415006553641764e-18  1.7161733501093280e-17  9.5683394153870790e-17  3.1359891898931447e-16  8.5575704869541188e-16  2.0627145546400679e-15  4.4607072654040399e-15  8.6965011393600924e-15  1.5310063290726531e-14  2.4352697715051638e-14  3.5003532351499441e-14  4.5459180246249670e-14  5.3324255976986741e-14  5.6457656939793516e-14  5.3883672670545813e-14  4.6244889289936912e-14  3.5515419644333952e-14  2.4151842712724471e-14  1.4180296763100578e-14  6.6736928161419046e-15  1.7534011159715747e-15  -1.0633979812842865e-15  -2.4550485273100291e-15  -3.0179938154275232e-15  -3.1617263888420651e-15  -3.1206432494573213e-15  -3.0098926875190565e-15  -2.8787326720060146e-15  -2.7455995172444832e-15  -2.6164592287039580e-15  -2.4928625170683195e-15  -2.3749870835114858e-15  -2.2626409675956236e-15  -2.1555538496517165e-15  -2.0534515317029460e-15  -1.9560722357518139e-15  -1.8631691014002080e-15  -1.7745098150439697e-15  -1.6898757074263694e-15  -1.6090609658215304e-15  -1.5318714800939351e-15  -1.4581249835195426e-15  -1.3876475856978045e-15  -1.3202812772418449e-15  -1.2558587903554760e-15  -1.1942768138837474e-15  -1.1352727420280282e-15  -1.0790989146563601e-15  -1.0244829919847144e-15  -9.7481570001922821e-16  -9.1988540413644509e-16  -8.8774309007351843e-16  -1.8518897244442601e-17  -1.8493306160226420e-17  -1.8505805337376129e-17  -1.8521169721417748e-17  -1.8532899739773114e-17  -1.8536094541729354e-17  -1.8528850100973542e-17  -1.8507704753959982e-17  -1.8448077366854008e-17  -1.8208038393477913e-17  -1.7077426994984973e-17  -1.1898672859082076e-17  9.8530435008549968e-18  9.2464901904334355e-17  3.7515877189316622e-16  1.2454593465311893e-15  3.6529134867887727e-15  9.6280189527700527e-15  2.2907920158415392e-14  4.9268724914893385e-14  9.5827586216878146e-14  1.6858592938708467e-13  2.6828961033298313e-13  3.8624831624876464e-13  5.0307739849047538e-13  5.9283288632634891e-13  6.3209006365819273e-13  6.0979403043766883e-13  5.3226054517424892e-13  4.2025678421409043e-13  2.9999573460188997e-13  1.9334559252607532e-13  1.1213182784313730e-13  5.8026842308819399e-14  2.6170527201955769e-14  9.5044964551404705e-15  1.7503041583927493e-15  -1.4345312398742290e-15  -2.5518140802204385e-15  -2.8394068274827937e-15  -2.8321733808480273e-15  -2.7339875104446668e-15  -2.6137980198883343e-15  -2.4922882559838745e-15  -2.3748574800571985e-15  -2.2625989345075164e-15  -2.1555285748961524e-15  -2.0534301172347336e-15  -1.9560524590598867e-15  -1.8631505496393815e-15  -1.7744923595914964e-15  -1.6898592709258895e-15  -1.6090454728813659e-15  -1.5318568874124723e-15  -1.4581111785439437e-15  -1.3876346743118640e-15  -1.3202687442674313e-15  -1.2558479534076981e-15  -1.1942636031484921e-15  -1.1352688734707667e-15  -1.0790693058533496e-15  -1.0245255215884905e-15  -9.7463712337755778e-16  -9.2003129449282934e-16  -8.8809045392557827e-16  -1.8424631037250451e-17  -1.8467692118039454e-17  -1.8458397419324275e-17  -1.8448995617745042e-17  -1.8436514080306078e-17  -1.8416357119556635e-17  -1.8380501121317797e-17  -1.8287866074414815e-17  -1.7886908416836311e-17  -1.5781338694855350e-17  -5.0527336310747113e-18  4.4951323621970104e-17  2.5561051530323358e-16  1.0556283843918940e-15  3.7914340714317181e-15  1.2207816332506676e-14  3.5474364539599965e-14  9.3187866904364112e-14  2.2139961951130964e-13  4.7581265134670354e-13  9.2505813620890479e-13  1.6270465793349067e-12  2.5891291460232272e-12  3.7278602094437324e-12  4.8568384696228572e-12  5.7263742822928863e-12  6.1106961527161097e-12  5.9026759964353061e-12  5.1620970027204357e-12  4.0879072072297234e-12  2.9319230789893807e-12  1.9047705627765204e-12  1.1209112332729875e-12  5.9725226069611002e-13  2.8768183533899609e-13  1.2463754050074265e-13  4.7795174866791313e-14  1.5305748695102299e-14  2.9858679957027146e-15  -1.1708986334847970e-15  -2.3737131733481713e-15  -2.6189300488884316e-15  -2.5873674610944772e-15  -2.4867070305052456e-15  -2.3737587945819822e-15  -2.2623841686482958e-15  -2.1554748967431773e-15  -2.0534044017685033e-15  -1.9560320896751281e-15  -1.8631319281887142e-15  -1.7744748985728936e-15  -1.6898428337545110e-15  -1.6090299812684720e-15  -1.5318422876682376e-15  -1.4580973896524185e-15  -1.3876217103213046e-15  -1.3202563613424832e-15  -1.2558366684835779e-15  -1.1942517273956216e-15  -1.1352610991168369e-15  -1.0790516345028618e-15  -1.0245355839575646e-15  -9.7456261392069483e-16  -9.2004106996070670e-16  -8.8826254719241711e-16  -1.8685639510555437e-17  -1.8621274916441030e-17  -1.8644400868286431e-17  -1.8673608275915779e-17  -1.8706373973352995e-17  -1.8731164550969567e-17  -1.8689574157433686e-17  -1.8215418403476977e-17  -1.5077108575759916e-17  3.0133783669164703e-18  9.6751362259472275e-17  5.3469575958540958e-16  2.3793501136842611e-15  9.3804580765810056e-15  3.3306448899513201e-14  1.0686703410671975e-13  3.1010755197737624e-13  8.1400164036711231e-13  1.9329219599493471e-12  4.1523864486526999e-12  8.0703615348923293e-12  1.4191251161835168e-11  2.2579116027569566e-11  3.2507586903729873e-11  4.2354093256392274e-11  4.9944762200308467e-11  5.3312697986685495e-11  5.1521972561595240e-11  4.5088378197079300e-11  3.5739787914820881e-11  2.5667073044466681e-11  1.6706161145528183e-11  9.8584033275464937e-12  5.2762394355084845e-12  2.5618958192276156e-12  1.1285522106028461e-12  4.5057233517010030e-13  1.6230186104950920e-13  5.1834842641477622e-14  1.3627983152277859e-14  1.7192679402269707e-15  -1.5837281509335981e-15  -2.3474363111936838e-15  -2.4356104951692837e-15  -2.3637179321108439e-15  -2.2605443789000430e-15  -2.1551467792585683e-15  -2.0533353390822404e-15  -1.9560052421492524e-15  -1.8631123692846357e-15  -1.7744572947648827e-15  -1.6898263700912834e-15  -1.6090144821564026e-15  -1.5318276818751051e-15  -1.4580836056810431e-15  -1.3876087229990294e-15  -1.3202440402520109e-15  -1.2558251972333112e-15  -1.1942403989978555e-15  -1.1352517485735911e-15  -1.0790387543552319e-15  -1.0245332291316408e-15  -9.7452868646545558e-16  -9.2001945313134314e-16  -8.8830985771254680e-16  -1.8386335804604916e-17  -1.8484272657576927e-17  -1.8448641771742795e-17  -1.8406795817246269e-17  -1.8351125685822334e-17  -1.8223143882171097e-17  -1.7597615192449998e-17  -1.3578579532618358e-17  1.1582031339194297e-17  1.5552041903083602e-16  9.0010836495469182e-16  4.3757898828656201e-15  1.9004745502570625e-14  7.4488575091405128e-14  2.6398128501812938e-13  8.4623483182650276e-13  2.4540769257051988e-12  6.4384587283192840e-12  1.5282144595600603e-11  3.2817764808898840e-11  6.3763699629835278e-11  1.1209872124445428e-10  1.7832814749148615e-10  2.5672526960185675e-10  3.3449802823729067e-10  3.9450482260731005e-10  4.2122575470596021e-10  4.0725419384656642e-10  3.5661901346433465e-10  2.8291111700968768e-10  2.0339523614758071e-10  1.3256787537416978e-10  7.8366350008967823e-11  4.2036809782064570e-11  2.0473035467531286e-11  9.0584258306283702e-12  3.6433235392426210e-12  1.3324350996620417e-12  4.4264710348079311e-13  1.3273782986643663e-13  3.4898964780203086e-14  6.8804192565766182e-15  -3.6546219759488111e-16  -2.0083830649233270e-15  -2.2786393528753799e-15  -2.2448147490351740e-15  -2.1524212353119950e-15  -2.0528782637258392e-15  -1.9559191576043933e-15  -1.8630842549905174e-15  -1.7744385206923349e-15  -1.6898097635653870e-15  -1.6089989672566566e-15  -1.5318130752899898e-15  -1.4580698236791456e-15  -1.3875957261069441e-15  -1.3202317438714824e-15  -1.2558136492397007e-15  -1.1942292915764531e-15  -1.1352417719091218e-15  -1.0790277682095858e-15  -1.0245262750151238e-15  -9.7451040458857734e-16  -9.1999579576230107e-16  -8.8830678345584956e-16  -1.8938809281999146e-17  -1.8792584842502249e-17  -1.8853754485217374e-17  -1.8923041521797944e-17  -1.8952486871673581e-17  -1.8536862651354372e-17  -1.4603185171725694e-17  1.3751990872774516e-17  1.9438148327294188e-16  1.2299719745836743e-15  6.5856170754054371e-15  3.1568794882163291e-14  1.3664849908446590e-13  5.3492461826322385e-13  1.8943074283105040e-12  6.0688865533847948e-12  1.7590562440990799e-11  4.6128751947344503e-11  1.0944503555571850e-10  2.3494579891378489e-10  4.5635881855669565e-10  8.0211840358313902e-10  1.2758435451833876e-09  1.8366474054142884e-09  2.3931861173614975e-09  2.8230223598290303e-09  3.0152118244674311e-09  2.9166280013643764e-09  2.5557335666774361e-09  2.0293312563409681e-09  1.4606534901237749e-09  9.5340644173353459e-10  5.6461805133075799e-10  3.0354310128465412e-10  1.4823725661342798e-10  6.5810225249607874e-11  2.6583090828885122e-11  9.7794677301659865e-12  3.2797755800097368e-12  1.0032496967215082e-12  2.7934626195000979e-13  6.9841055139203356e-14  1.4548331456344241e-14  1.2511438477350225e-15  -1.6187218305924411e-15  -2.1204463749674708e-15  -2.1304651120896343e-15  -2.0492104242977627e-15  -1.9553230696324451e-15  -1.8629782634737704e-15  -1.7744081093532779e-15  -1.6897914242158730e-15  -1.6089831676973899e-15  -1.5317984192938589e-15  -1.4580560258326904e-15  -1.3875827215768877e-15  -1.3202194537960759e-15  -1.2558020691681720e-15  -1.1942182706442284e-15  -1.1352315504676332e-15  -1.0790175171269768e-15  -1.0245176923309997e-15  -9.7449807289681272e-16  -9.1997637787691821e-16  -8.8829000849953655e-16  -1.8191311152556568e-17  -1.8407297847857340e-17  -1.8303189390444743e-17  -1.8137755234178328e-17  -1.7594632740244662e-17  -1.4018068760954246e-17  1.2663064380961938e-17  1.9887322029497477e-16  1.3786674205594925e-15  8.1325709824097383e-15  4.3029928377298919e-14  2.0569793810072772e-13  8.8941090034458702e-13  3.4791722635165094e-12  1.2313151093556819e-11  3.9426614481252113e-11  1.1422032554925509e-10  2.9939174280474072e-10  7.1005378365591882e-10  1.5237540337039791e-09  2.9589234250940101e-09  5.1996959005193827e-09  8.2696300086457895e-09  1.1904374046983060e-08  1.5513124796510884e-08  1.8303631851464436e-08  1.9557283238145717e-08  1.8928580201836250e-08  1.6599310374057272e-08  1.3193820815442385e-08  9.5089049079859032e-09  6.2168315716517971e-09  3.6890838137739574e-09  1.9881506375405823e-09  9.7381663993447238e-10  4.3388230090301887e-10  1.7602228257880835e-10  6.5099064796000158e-11  2.1978061739710702e-11  6.7839695702957225e-12  1.9173735081157949e-12  4.9633167234893604e-13  1.1689366502928563e-13  2.3970609849964694e-14  3.0676444503597252e-15  -1.2173930870496554e-15  -1.9668473786029866e-15  -2.0211160947199835e-15  -1.9506998800179489e-15  -1.8622311924486646e-15  -1.7742779120420675e-15  -1.6897577472542825e-15  -1.6089649447519570e-15  -1.5317833870033748e-15  -1.4580421413134715e-15  -1.3875697021081691e-15  -1.3202071531800822e-15  -1.2557904732054712e-15  -1.1942072770925540e-15  -1.1352212324647364e-15  -1.0790075412022751e-15  -1.0245085685115145e-15  -9.7448796668438681e-16  -9.1996113908563335e-16  -8.8827261346535952e-16  -1.9387730111177900e-17  -1.9070084391840068e-17  -1.9208555128202254e-17  -1.9167550892015922e-17  -1.7077177109037313e-17  2.8035955722344979e-18  1.5925676258699175e-16  1.2591989788958496e-15  8.2317489583304807e-15  4.8124408427162711e-14  2.5410395420736271e-13  1.2135763482261773e-12  5.2436933441397353e-12  2.0499434481847276e-11  7.2508176689020859e-11  2.3204790730350441e-10  6.7192521357314277e-10  1.7604641140061613e-09  4.1736025525097368e-09  8.9535005709560740e-09  1.7381984868261755e-08  3.0539747402901428e-08  4.8566336096061670e-08  6.9914020654554166e-08  9.1121337184322367e-08  1.0754371051517389e-07  1.1496290608811928e-07  1.1134109319979912e-07  9.7727450606800537e-08  7.7768414798780913e-08  5.6131301578226355e-08  3.6765737137608369e-08  2.1866310373153153e-08  1.1816876311535108e-08  5.8073366122701541e-09  2.5978392336781325e-09  1.0590027588020037e-09  3.9392283230865640e-10  1.3391985150988241e-10  4.1688950390853614e-11  1.1909832433625539e-11  3.1301418588435585e-12  7.5828022655534644e-13  1.6887558492536587e-13  3.3591509234747826e-14  4.8132191769699473e-15  -8.4153363912096305e-16  -1.8211761109951359e-15  -1.9165475833166750e-15  -1.8565521142846406e-15  -1.7733359979077510e-15  -1.6895902754527522e-15  -1.6089237973230666e-15  -1.5317642029620906e-15  -1.4580272843491324e-15  -1.3875564484857056e-15  -1.3201947268728221e-15  -1.2557788286340983e-15  -1.1941962500166829e-15  -1.1352108547714611e-15  -1.0789976390264326e-15  -1.0244992637908247e-15  -9.7447865439062098e-16  -9.1994877873909648e-16  -8.8825775509188669e-16  -1.7700834478174132e-17  -1.8138495632600755e-17  -1.7753219922308595e-17  -1.6097429747026479e-17  -3.0626212376151409e-18  1.0580974010259567e-16  9.4748182443321964e-16  6.8454919224004055e-15  4.4188628617796039e-14  2.5766856208681529e-13  1.3591443758931837e-12  6.4864589023344769e-12  2.8009198790284019e-11  1.0943291030507707e-10  3.8685896509877621e-10  1.2374284042897417e-09  3.5814471501320339e-09  9.3795173974447749e-09  2.2228157873745805e-08  4.7670676997635259e-08  9.2524218956650166e-08  1.6253846184322175e-07  2.5846651897541729e-07  3.7210268669299954e-07  4.8507456642643290e-07  5.7270903596051132e-07  6.1256192814040633e-07  5.9372775635593587e-07  5.2167513427787448e-07  4.1568919143297848e-07  3.0054101504589023e-07  1.9726535596883973e-07  1.1762417597981797e-07  6.3764106361812640e-08  3.1454530637000012e-08  1.4134517721553141e-08  5.7932045909292607e-09  2.1689571551661725e-09  7.4312229042613603e-10  2.3350027719184649e-10  6.7462552344609743e-11  1.7977699013309735e-11  4.4345599777256337e-12  1.0160698955967713e-12  2.1630460244050550e-13  4.1929569253241863e-14  6.3131216740867839e-15  -5.0144140634717796e-16  -1.6813813091065628e-15  -1.8156275227394780e-15  -1.7662800644376514e-15  -1.6883569955471922e-15  -1.6086905027362483e-15  -1.5317082666469007e-15  -1.4580039984527869e-15  -1.3875410274723706e-15  -1.3201813402631481e-15  -1.2557668040912384e-15  -1.1941849150317579e-15  -1.1352002851908151e-15  -1.0789875892042670e-15  -1.0244897771781140e-15  -9.7446947771040550e-16  -9.1993803169077709e-16  -8.8824522676746678e-16  -2.0229190675511625e-17  -1.9528345175430708e-17  -1.9320755516336039e-17  -1.3384034436915024e-17  4.7320518488482912e-17  5.7342095807054679e-16  4.6595497058879495e-15  3.3293718254944297e-14  2.1447834065869646e-13  1.2495455115483171e-12  6.5864946937666779e-12  3.1413629164576041e-11  1.3556521780056905e-10  5.2935525232601074e-10  1.8703322593746649e-09  5.9795632405793146e-09  1.7298548466226760e-08  4.5285012248758954e-08  1.0728153588212281e-07  2.3001138552007918e-07  4.4633840429737775e-07  7.8400073296524258e-07  1.2467067486881001e-06  1.7950621452871160e-06  2.3407173542513701e-06  2.7648851013763516e-06  2.9592919388511436e-06  2.8709618915142503e-06  2.5256176112145281e-06  2.0156216831325029e-06  1.4601111673348293e-06  9.6066417408247732e-07  5.7449384429444557e-07  3.1253702632211554e-07  1.5483177859202384e-07  6.9932912803865693e-08  2.8839271034394231e-08  1.0876931499537912e-08  3.7595298677071618e-09  1.1937991442465317e-09  3.4928736703517164e-10  9.4499568793103130e-11  2.3741344037656067e-11  5.5657733287730692e-12  1.2237218913989756e-12  2.5297469403876208e-13  4.8466946235069577e-14  7.5950659013605063e-15  -1.7192421318927665e-16  -1.5396103021697415e-15  -1.7161460279515844e-15  -1.6791612296621838e-15  -1.6069344593567005e-15  -1.5313419963603691e-15  -1.4579075576157944e-15  -1.3875057255226106e-15  -1.3201601214357378e-15  -1.2557515616552850e-15  -1.1941713932909295e-15  -1.1351884471137939e-15  -1.0789764145452452e-15  -1.0244794146826242e-15  -9.7445951813497283e-16  -9.1992744909314858e-16  -8.8823353060791159e-16  -1.6706066148930457e-17  -1.7312184600334502e-17  -1.3948415205169369e-17  1.5414600079427327e-17  2.8724353869206217e-16  2.6107881490855488e-15  2.0608825099504744e-14  1.4660169059881645e-13  9.4322662739797103e-13  5.4910309767988570e-12  2.8924783008280237e-11  1.3786878673350057e-10  5.9462333330915166e-10  2.3206001117695278e-09  8.1949426777879786e-09  2.6187086940260880e-08  7.5724604620044996e-08  1.9815902483774971e-07  4.6929178555003551e-07  1.0059065689433187e-06  1.9516450587541633e-06  3.4278876612816718e-06  5.4513214814680976e-06  7.8506953059064119e-06  1.0241037853773556e-05  1.2103940036998859e-05  1.2965685207365140e-05  1.2592546349953522e-05  1.1093597968585623e-05  8.8694279656940900e-06  6.4393787059691275e-06  4.2483676354024129e-0