<?xml version="1.0"?>
<VTKFile type="UnstructuredGrid"  version="0.1"  >
<UnstructuredGrid>
<Piece  NumberOfPoints="4225" NumberOfCells="8192">
<Points>
<DataArray  type="Float64"  NumberOfComponents="3"  format="ascii">0 0 0  0.015625 0 0  0.03125 0 0  0.046875 0 0  0.0625 0 0  0.078125 0 0  0.09375 0 0  0.109375 0 0  0.125 0 0  0.140625 0 0  0.15625 0 0  0.171875 0 0  0.1875 0 0  0.203125 0 0  0.21875 0 0  0.234375 0 0  0.25 0 0  0.265625 0 0  0.28125 0 0  0.296875 0 0  0.3125 0 0  0.328125 0 0  0.34375 0 0  0.359375 0 0  0.375 0 0  0.390625 0 0  0.40625 0 0  0.421875 0 0  0.4375 0 0  0.453125 0 0  0.46875 0 0  0.484375 0 0  0.5 0 0  0.515625 0 0  0.53125 0 0  0.546875 0 0  0.5625 0 0  0.578125 0 0  0.59375 0 0  0.609375 0 0  0.625 0 0  0.640625 0 0  0.65625 0 0  0.671875 0 0  0.6875 0 0  0.703125 0 0  0.71875 0 0  0.734375 0 0  0.75 0 0  0.765625 0 0  0.78125 0 0  0.796875 0 0  0.8125 0 0  0.828125 0 0  0.84375 0 0  0.859375 0 0  0.875 0 0  0.890625 0 0  0.90625 0 0  0.921875 0 0  0.9375 0 0  0.953125 0 0  0.96875 0 0  0.984375 0 0  1 0 0  0 0.015625 0  0.015625 0.015625 0  0.03125 0.015625 0  0.046875 0.015625 0  0.0625 0.015625 0  0.078125 0.015625 0  0.09375 0.015625 0  0.109375 0.015625 0  0.125 0.015625 0  0.140625 0.015625 0  0.15625 0.015625 0  0.171875 0.015625 0  0.1875 0.015625 0  0.203125 0.015625 0  0.21875 0.015625 0  0.234375 0.015625 0  0.25 0.015625 0  0.265625 0.015625 0  0.28125 0.015625 0  0.296875 0.015625 0  0.3125 0.015625 0  0.328125 0.015625 0  0.34375 0.015625 0  0.359375 0.015625 0  0.375 0.015625 0  0.390625 0.015625 0  0.40625 0.015625 0  0.421875 0.015625 0  0.4375 0.015625 0  0.453125 0.015625 0  0.46875 0.015625 0  0.484375 0.015625 0  0.5 0.015625 0  0.515625 0.015625 0  0.53125 0.015625 0  0.546875 0.015625 0  0.5625 0.015625 0  0.578125 0.015625 0  0.59375 0.015625 0  0.609375 0.015625 0  0.625 0.015625 0  0.640625 0.015625 0  0.65625 0.015625 0  0.671875 0.015625 0  0.6875 0.015625 0  0.703125 0.015625 0  0.71875 0.015625 0  0.734375 0.015625 0  0.75 0.015625 0  0.765625 0.015625 0  0.78125 0.015625 0  0.796875 0.015625 0  0.8125 0.015625 0  0.828125 0.015625 0  0.84375 0.015625 0  0.859375 0.015625 0  0.875 0.015625 0  0.890625 0.015625 0  0.90625 0.015625 0  0.921875 0.015625 0  0.9375 0.015625 0  0.953125 0.015625 0  0.96875 0.015625 0  0.984375 0.015625 0  1 0.015625 0  0 0.03125 0  0.015625 0.03125 0  0.03125 0.03125 0  0.046875 0.03125 0  0.0625 0.03125 0  0.078125 0.03125 0  0.09375 0.03125 0  0.109375 0.03125 0  0.125 0.03125 0  0.140625 0.03125 0  0.15625 0.03125 0  0.171875 0.03125 0  0.1875 0.03125 0  0.203125 0.03125 0  0.21875 0.03125 0  0.234375 0.03125 0  0.25 0.03125 0  0.265625 0.03125 0  0.28125 0.03125 0  0.296875 0.03125 0  0.3125 0.03125 0  0.328125 0.03125 0  0.34375 0.03125 0  0.359375 0.03125 0  0.375 0.03125 0  0.390625 0.03125 0  0.40625 0.03125 0  0.421875 0.03125 0  0.4375 0.03125 0  0.453125 0.03125 0  0.46875 0.03125 0  0.484375 0.03125 0  0.5 0.03125 0  0.515625 0.03125 0  0.53125 0.03125 0  0.546875 0.03125 0  0.5625 0.03125 0  0.578125 0.03125 0  0.59375 0.03125 0  0.609375 0.03125 0  0.625 0.03125 0  0.640625 0.03125 0  0.65625 0.03125 0  0.671875 0.03125 0  0.6875 0.03125 0  0.703125 0.03125 0  0.71875 0.03125 0  0.734375 0.03125 0  0.75 0.03125 0  0.765625 0.03125 0  0.78125 0.03125 0  0.796875 0.03125 0  0.8125 0.03125 0  0.828125 0.03125 0  0.84375 0.03125 0  0.859375 0.03125 0  0.875 0.03125 0  0.890625 0.03125 0  0.90625 0.03125 0  0.921875 0.03125 0  0.9375 0.03125 0  0.953125 0.03125 0  0.96875 0.03125 0  0.984375 0.03125 0  1 0.03125 0  0 0.046875 0  0.015625 0.046875 0  0.03125 0.046875 0  0.046875 0.046875 0  0.0625 0.046875 0  0.078125 0.046875 0  0.09375 0.046875 0  0.109375 0.046875 0  0.125 0.046875 0  0.140625 0.046875 0  0.15625 0.046875 0  0.171875 0.046875 0  0.1875 0.046875 0  0.203125 0.046875 0  0.21875 0.046875 0  0.234375 0.046875 0  0.25 0.046875 0  0.265625 0.046875 0  0.28125 0.046875 0  0.296875 0.046875 0  0.3125 0.046875 0  0.328125 0.046875 0  0.34375 0.046875 0  0.359375 0.046875 0  0.375 0.046875 0  0.390625 0.046875 0  0.40625 0.046875 0  0.421875 0.046875 0  0.4375 0.046875 0  0.453125 0.046875 0  0.46875 0.046875 0  0.484375 0.046875 0  0.5 0.046875 0  0.515625 0.046875 0  0.53125 0.046875 0  0.546875 0.046875 0  0.5625 0.046875 0  0.578125 0.046875 0  0.59375 0.046875 0  0.609375 0.046875 0  0.625 0.046875 0  0.640625 0.046875 0  0.65625 0.046875 0  0.671875 0.046875 0  0.6875 0.046875 0  0.703125 0.046875 0  0.71875 0.046875 0  0.734375 0.046875 0  0.75 0.046875 0  0.765625 0.046875 0  0.78125 0.046875 0  0.796875 0.046875 0  0.8125 0.046875 0  0.828125 0.046875 0  0.84375 0.046875 0  0.859375 0.046875 0  0.875 0.046875 0  0.890625 0.046875 0  0.90625 0.046875 0  0.921875 0.046875 0  0.9375 0.046875 0  0.953125 0.046875 0  0.96875 0.046875 0  0.984375 0.046875 0  1 0.046875 0  0 0.0625 0  0.015625 0.0625 0  0.03125 0.0625 0  0.046875 0.0625 0  0.0625 0.0625 0  0.078125 0.0625 0  0.09375 0.0625 0  0.109375 0.0625 0  0.125 0.0625 0  0.140625 0.0625 0  0.15625 0.0625 0  0.171875 0.0625 0  0.1875 0.0625 0  0.203125 0.0625 0  0.21875 0.0625 0  0.234375 0.0625 0  0.25 0.0625 0  0.265625 0.0625 0  0.28125 0.0625 0  0.296875 0.0625 0  0.3125 0.0625 0  0.328125 0.0625 0  0.34375 0.0625 0  0.359375 0.0625 0  0.375 0.0625 0  0.390625 0.0625 0  0.40625 0.0625 0  0.421875 0.0625 0  0.4375 0.0625 0  0.453125 0.0625 0  0.46875 0.0625 0  0.484375 0.0625 0  0.5 0.0625 0  0.515625 0.0625 0  0.53125 0.0625 0  0.546875 0.0625 0  0.5625 0.0625 0  0.578125 0.0625 0  0.59375 0.0625 0  0.609375 0.0625 0  0.625 0.0625 0  0.640625 0.0625 0  0.65625 0.0625 0  0.671875 0.0625 0  0.6875 0.0625 0  0.703125 0.0625 0  0.71875 0.0625 0  0.734375 0.0625 0  0.75 0.0625 0  0.765625 0.0625 0  0.78125 0.0625 0  0.796875 0.0625 0  0.8125 0.0625 0  0.828125 0.0625 0  0.84375 0.0625 0  0.859375 0.0625 0  0.875 0.0625 0  0.890625 0.0625 0  0.90625 0.0625 0  0.921875 0.0625 0  0.9375 0.0625 0  0.953125 0.0625 0  0.96875 0.0625 0  0.984375 0.0625 0  1 0.0625 0  0 0.078125 0  0.015625 0.078125 0  0.03125 0.078125 0  0.046875 0.078125 0  0.0625 0.078125 0  0.078125 0.078125 0  0.09375 0.078125 0  0.109375 0.078125 0  0.125 0.078125 0  0.140625 0.078125 0  0.15625 0.078125 0  0.171875 0.078125 0  0.1875 0.078125 0  0.203125 0.078125 0  0.21875 0.078125 0  0.234375 0.078125 0  0.25 0.078125 0  0.265625 0.078125 0  0.28125 0.078125 0  0.296875 0.078125 0  0.3125 0.078125 0  0.328125 0.078125 0  0.34375 0.078125 0  0.359375 0.078125 0  0.375 0.078125 0  0.390625 0.078125 0  0.40625 0.078125 0  0.421875 0.078125 0  0.4375 0.078125 0  0.453125 0.078125 0  0.46875 0.078125 0  0.484375 0.078125 0  0.5 0.078125 0  0.515625 0.078125 0  0.53125 0.078125 0  0.546875 0.078125 0  0.5625 0.078125 0  0.578125 0.078125 0  0.59375 0.078125 0  0.609375 0.078125 0  0.625 0.078125 0  0.640625 0.078125 0  0.65625 0.078125 0  0.671875 0.078125 0  0.6875 0.078125 0  0.703125 0.078125 0  0.71875 0.078125 0  0.734375 0.078125 0  0.75 0.078125 0  0.765625 0.078125 0  0.78125 0.078125 0  0.796875 0.078125 0  0.8125 0.078125 0  0.828125 0.078125 0  0.84375 0.078125 0  0.859375 0.078125 0  0.875 0.078125 0  0.890625 0.078125 0  0.90625 0.078125 0  0.921875 0.078125 0  0.9375 0.078125 0  0.953125 0.078125 0  0.96875 0.078125 0  0.984375 0.078125 0  1 0.078125 0  0 0.09375 0  0.015625 0.09375 0  0.03125 0.09375 0  0.046875 0.09375 0  0.0625 0.09375 0  0.078125 0.09375 0  0.09375 0.09375 0  0.109375 0.09375 0  0.125 0.09375 0  0.140625 0.09375 0  0.15625 0.09375 0  0.171875 0.09375 0  0.1875 0.09375 0  0.203125 0.09375 0  0.21875 0.09375 0  0.234375 0.09375 0  0.25 0.09375 0  0.265625 0.09375 0  0.28125 0.09375 0  0.296875 0.09375 0  0.3125 0.09375 0  0.328125 0.09375 0  0.34375 0.09375 0  0.359375 0.09375 0  0.375 0.09375 0  0.390625 0.09375 0  0.40625 0.09375 0  0.421875 0.09375 0  0.4375 0.09375 0  0.453125 0.09375 0  0.46875 0.09375 0  0.484375 0.09375 0  0.5 0.09375 0  0.515625 0.09375 0  0.53125 0.09375 0  0.546875 0.09375 0  0.5625 0.09375 0  0.578125 0.09375 0  0.59375 0.09375 0  0.609375 0.09375 0  0.625 0.09375 0  0.640625 0.09375 0  0.65625 0.09375 0  0.671875 0.09375 0  0.6875 0.09375 0  0.703125 0.09375 0  0.71875 0.09375 0  0.734375 0.09375 0  0.75 0.09375 0  0.765625 0.09375 0  0.78125 0.09375 0  0.796875 0.09375 0  0.8125 0.09375 0  0.828125 0.09375 0  0.84375 0.09375 0  0.859375 0.09375 0  0.875 0.09375 0  0.890625 0.09375 0  0.90625 0.09375 0  0.921875 0.09375 0  0.9375 0.09375 0  0.953125 0.09375 0  0.96875 0.09375 0  0.984375 0.09375 0  1 0.09375 0  0 0.109375 0  0.015625 0.109375 0  0.03125 0.109375 0  0.046875 0.109375 0  0.0625 0.109375 0  0.078125 0.109375 0  0.09375 0.109375 0  0.109375 0.109375 0  0.125 0.109375 0  0.140625 0.109375 0  0.15625 0.109375 0  0.171875 0.109375 0  0.1875 0.109375 0  0.203125 0.109375 0  0.21875 0.109375 0  0.234375 0.109375 0  0.25 0.109375 0  0.265625 0.109375 0  0.28125 0.109375 0  0.296875 0.109375 0  0.3125 0.109375 0  0.328125 0.109375 0  0.34375 0.109375 0  0.359375 0.109375 0  0.375 0.109375 0  0.390625 0.109375 0  0.40625 0.109375 0  0.421875 0.109375 0  0.4375 0.109375 0  0.453125 0.109375 0  0.46875 0.109375 0  0.484375 0.109375 0  0.5 0.109375 0  0.515625 0.109375 0  0.53125 0.109375 0  0.546875 0.109375 0  0.5625 0.109375 0  0.578125 0.109375 0  0.59375 0.109375 0  0.609375 0.109375 0  0.625 0.109375 0  0.640625 0.109375 0  0.65625 0.109375 0  0.671875 0.109375 0  0.6875 0.109375 0  0.703125 0.109375 0  0.71875 0.109375 0  0.734375 0.109375 0  0.75 0.109375 0  0.765625 0.109375 0  0.78125 0.109375 0  0.796875 0.109375 0  0.8125 0.109375 0  0.828125 0.109375 0  0.84375 0.109375 0  0.859375 0.109375 0  0.875 0.109375 0  0.890625 0.109375 0  0.90625 0.109375 0  0.921875 0.109375 0  0.9375 0.109375 0  0.953125 0.109375 0  0.96875 0.109375 0  0.984375 0.109375 0  1 0.109375 0  0 0.125 0  0.015625 0.125 0  0.03125 0.125 0  0.046875 0.125 0  0.0625 0.125 0  0.078125 0.125 0  0.09375 0.125 0  0.109375 0.125 0  0.125 0.12
[...]
<PointData  Scalars="f_14"> 
<DataArray  type="Float64"  Name="f_14"  format="ascii">9.2264330427784075e-17  8.7426057082380185e-17  8.1498960478437146e-17  7.4758906064851590e-17  6.7278199333128222e-17  5.9188760347368091e-17  5.0671543415106197e-17  4.1938715364188299e-17  3.3214036286986183e-17  2.4710329038877469e-17  1.6595681056595026e-17  8.9188616211316973e-18  1.4111448864263744e-18  -7.0181366022661385e-18  -1.9320408248421272e-17  -4.2481441394605743e-17  -9.0793763751077959e-17  -1.8983673954717098e-16  -3.7908631238917144e-16  -7.0964239391218398e-16  -1.2335513700401014e-15  -1.9843534220848369e-15  -2.9545615578451331e-15  -4.0812947974330557e-15  -5.2510346303344104e-15  -6.3261288441274807e-15  -7.1833791388555077e-15  -7.7474143034552662e-15  -8.0044884982156806e-15  -7.9936688637475640e-15  -7.7837512349487178e-15  -7.4486586879408009e-15  -7.0505036594756858e-15  -6.6329089153443387e-15  -6.2220155422384126e-15  -5.8310372139717000e-15  -5.4651635491076721e-15  -5.1253001451125356e-15  -4.8103954210532053e-15  -4.5186788833705838e-15  -4.2482334625613093e-15  -3.9972223348576338e-15  -3.7639600606530196e-15  -3.5469226626410365e-15  -3.3447374779950201e-15  -3.1561681481069154e-15  -2.9800997156162184e-15  -2.8155251442197214e-15  -2.6615333940234287e-15  -2.5172989467781594e-15  -2.3820725986834251e-15  -2.2551733577448542e-15  -2.1359813017313862e-15  -2.0239312725006886e-15  -1.9185072993080729e-15  -1.8192376614317123e-15  -1.7256905042313463e-15  -1.6374699715168172e-15  -1.5542124179924109e-15  -1.4755826230896224e-15  -1.4012623767083475e-15  -1.3308781675837210e-15  -1.2646670224201186e-15  -1.1998314297638008e-15  -1.1774869939660356e-15  8.4022193683538229e-17  8.3037106061722105e-17  7.8073668880775793e-17  7.2175594739603647e-17  6.5591901592074272e-17  5.8409509370211502e-17  5.0763292304499199e-17  4.2825641866654548e-17  3.4789592702173433e-17  2.6849590290835964e-17  1.9175616403226661e-17  1.1865981749076212e-17  4.8414365992941681e-18  -2.3847996933177038e-18  -1.1080210434799226e-17  -2.3946753476443310e-17  -4.5620004251159637e-17  -8.2608506444016011e-17  -1.4196623450821359e-16  -2.2886875947607969e-16  -3.4501460072861739e-16  -4.9120336172396495e-16  -6.7589856125369992e-16  -9.2580279965989491e-16  -1.2880465088758455e-15  -1.8142059833214080e-15  -2.5281844694954244e-15  -3.3959345450775694e-15  -4.3200476708148831e-15  -5.1682802022645621e-15  -5.8216807049166137e-15  -6.2148138919725118e-15  -6.3478843292274915e-15  -6.2705540556760169e-15  -6.0527315904637782e-15  -5.7593475335930930e-15  -5.4375927204921139e-15  -5.1156189403352401e-15  -4.8072389215023625e-15  -4.5176713898454468e-15  -4.2478712834390311e-15  -3.9970422726959475e-15  -3.7638333181906060e-15  -3.5468162652890574e-15  -3.3446430867382598e-15  -3.1560831917868382e-15  -2.9800229230114506e-15  -2.8154555836047561e-15  -2.6614702787583832e-15  -2.5172415899961913e-15  -2.3820203959996677e-15  -2.2551257758676089e-15  -2.1359378692073985e-15  -2.0238915718221767e-15  -1.9184709601516786e-15  -1.8192043542561543e-15  -1.7256599348679125e-15  -1.6374418672508745e-15  -1.5541866066276482e-15  -1.4755592211080080e-15  -1.4012449547855588e-15  -1.3308898630875105e-15  -1.2646728132908622e-15  -1.2000177656803599e-15  -1.1707586215715594e-15  8.5554777272292226e-17  8.1490932538176811e-17  7.7627896640644266e-17  7.2013384824242350e-17  6.5599135150433967e-17  5.8567381117604807e-17  5.1050438621150818e-17  4.3217503596063189e-17  3.5262811474881002e-17  2.7395581217263653e-17  1.9857617447177789e-17  1.3054298582374993e-17  8.0940907429391420e-18  8.6087529913182743e-18  2.6004782232331682e-17  9.2277686999677311e-17  2.8622553022047561e-16  7.7626842337207210e-16  1.8701434944056665e-15  4.0357327658795445e-15  7.8304667458357210e-15  1.3683124894676663e-14  2.1547679621061651e-14  3.0582909373319027e-14  3.9108798562531857e-14  4.5020767072220141e-14  4.6575634076113654e-14  4.3163558906786024e-14  3.5608565904651220e-14  2.5804981711662842e-14  1.5913751136883944e-14  7.5854679902695247e-15  1.5810229215940671e-15  -2.1474915453744299e-15  -4.1118728970334797e-15  -4.9320900347837827e-15  -5.1182096659594135e-15  -5.0038568538965988e-15  -4.7717310304582995e-15  -4.5073732441789180e-15  -4.2450908710921010e-15  -3.9962916090954895e-15  -3.7635845059031001e-15  -3.5466861907401992e-15  -3.3445445317379301e-15  -3.1559975703355902e-15  -2.9799460318624160e-15  -2.8153860069426202e-15  -2.6614071581132231e-15  -2.5171842290790274e-15  -2.3819681893959943e-15  -2.2550781902225991e-15  -2.1358944330810135e-15  -2.0238518677183330e-15  -1.9184346177293915e-15  -1.8191710442178808e-15  -1.7256293629316867e-15  -1.6374137659655021e-15  -1.5541607820484772e-15  -1.4755357517678257e-15  -1.4012262900614686e-15  -1.3308910075094494e-15  -1.2646980393497692e-15  -1.1998155426975713e-15  -1.1680403244080170e-15  7.0024847327317921e-17  7.3713753007769546e-17  7.0675691057648109e-17  6.6472021748296950e-17  6.1355761555493645e-17  5.5682351042541854e-17  4.9554618413806057e-17  4.3076418942631186e-17  3.6403715761798619e-17  2.9834356374736240e-17  2.4261210720713593e-17  2.3090979727721055e-17  3.9296460086076639e-17  1.1806964274601402e-16  4.0004855756730756e-16  1.2726937390321366e-15  3.6742082758726369e-15  9.5825677765696118e-15  2.2574381380603427e-14  4.8048233756628374e-14  9.2415319907989810e-14  1.6064189173450665e-13  2.5237515540767968e-13  3.5836182808711140e-13  4.5992866298857826e-13  5.3351639315610923e-13  5.5932985091085825e-13  5.2988918228024710e-13  4.5347291240705674e-13  3.5030869111600520e-13  2.4389628776343489e-13  1.5251350808607065e-13  8.4958805040719175e-14  4.1271542953600795e-14  1.6358862923889862e-14  3.8078658528918608e-15  -1.7382104287315184e-15  -3.8194980335465303e-15  -4.3955595979178190e-15  -4.3989900524423498e-15  -4.2167007632428659e-15  -3.9894752379557604e-15  -3.7620318965382588e-15  -3.5463016552194747e-15  -3.3444008433220411e-15  -3.1559046589771139e-15  -2.9798680608081588e-15  -2.8153162787746758e-15  -2.6613440137681480e-15  -2.5171268612736653e-15  -2.3819159783320934e-15  -2.2550306006766878e-15  -2.1358509933238982e-15  -2.0238121601903269e-15  -1.9183982720692327e-15  -1.8191377312258333e-15  -1.7255987884692094e-15  -1.6373856656175126e-15  -1.5541349510562263e-15  -1.4755121927577561e-15  -1.4012067473537625e-15  -1.3308865574271042e-15  -1.2647094963477910e-15  -1.1995770669251880e-15  -1.1668073525605484e-15  8.6041128461694137e-17  7.7267065881069828e-17  7.5452247635961287e-17  7.1054787058398813e-17  6.5426963109301239e-17  5.8975622527682003e-17  5.1953926612220948e-17  4.4577870591319389e-17  3.7303893352950546e-17  3.1816749747951667e-17  3.5614306934991999e-17  8.0987502495972820e-17  2.9424862996056129e-16  1.1172279846697436e-15  3.9237449824823134e-15  1.2492261735895829e-14  3.5956849431416472e-14  9.3545863095866690e-14  2.1998446431039207e-13  4.6763270523086829e-13  8.9862282700439906e-13  1.5610700914199528e-12  2.4516272446238278e-12  3.4809048481843885e-12  4.4684708602688676e-12  5.1866043329798750e-12  5.4437404717699876e-12  5.1669834342148714e-12  4.4354319710199423e-12  3.4436407363706485e-12  2.4181206933900876e-12  1.5354643292854029e-12  8.8114976818307735e-13  4.5625089908600946e-13  2.1221270093173821e-13  8.7529714521305358e-14  3.0685235059640042e-14  7.5597808600126799e-15  -7.7529715078375315e-16  -3.3545220314287458e-15  -3.9432909772289352e-15  -3.9244601460518551e-15  -3.7479297113383832e-15  -3.5434593806066797e-15  -3.3438198103618197e-15  -3.1557410093105660e-15  -2.9797796879515035e-15  -2.8152451595909159e-15  -2.6612806986722643e-15  -2.5170694719426120e-15  -2.3818637619904406e-15  -2.2549830074096684e-15  -2.1358075500528146e-15  -2.0237724492925311e-15  -1.9183619232041253e-15  -1.8191044152440790e-15  -1.7255682114887240e-15  -1.6373575651055071e-15  -1.5541091137688466e-15  -1.4754885590178184e-15  -1.4011866263300292e-15  -1.3308779148846676e-15  -1.2647071394667834e-15  -1.1993819417455258e-15  -1.1661750330850812e-15  4.6368293178117359e-17  6.0190073768495149e-17  5.7762510792649390e-17  5.5533732767046518e-17  5.2302071732412822e-17  4.8572826749896073e-17  4.4580339908911145e-17  4.0767845432482077e-17  3.9555688832265005e-17  5.4097225707774232e-17  1.4878793111865360e-16  6.0628546651071356e-16  2.5356473003868745e-15  9.8156619300165671e-15  3.4497550781498237e-14  1.0969735317340198e-13  3.1540180688923929e-13  8.1985467721973358e-13  1.9266499262514544e-12  4.0931865861101543e-12  7.8617272822668192e-12  1.3651547411138141e-11  2.1432282400945480e-11  3.0422770148426167e-11  3.9048159787060945e-11  4.5321939580140363e-11  4.7573407688735561e-11  4.5166533995241921e-11  3.8790163417164217e-11  3.0139786146315201e-11  2.1190313602773088e-11  1.3482699096242817e-11  7.7644186062347775e-12  4.0470698902173719e-12  1.9087673415579645e-12  8.1368543010257481e-13  3.1232872426279054e-13  1.0657628527279473e-13  3.0788860310657234e-14  5.7721887225259057e-15  -1.5486298045782694e-15  -3.3540230238875581e-15  -3.6244504050238298e-15  -3.5191068320221640e-15  -3.3393920734022321e-15  -3.1549513290742049e-15  -2.9795984944150139e-15  -2.8151614762911506e-15  -2.6612158215675457e-15  -2.5170118991945071e-15  -2.3818115217571810e-15  -2.2549354079687293e-15  -2.1357641028196542e-15  -2.0237327349192796e-15  -1.9183255711122396e-15  -1.8190710962514347e-15  -1.7255376319739350e-15  -1.6373294635665694e-15  -1.5540832700936350e-15  -1.4754648729713746e-15  -1.4011660885363188e-15  -1.3308659674059266e-15  -1.2646959714458548e-15  -1.1992359050958453e-15  -1.1658134784506208e-15  1.0521358114126029e-16  8.0497926146740615e-17  8.1254965637316419e-17  7.7680693859163384e-17  7.2479267466186641e-17  6.5906486730000795e-17  5.8851469782720002e-17  5.4764361689931597e-17  7.3053625590592611e-17  2.1860320445059886e-16  1.0044771871652962e-15  4.6812661221025198e-15  2.0072466531125549e-14  7.8010864907659820e-14  2.7421160101184451e-13  8.7147751386015091e-13  2.5040591132555306e-12  6.5049827265732183e-12  1.5277773253394727e-11  3.2440598296631862e-11  6.2278662666086704e-11  1.0809936549521137e-10  1.6965165610139691e-10  2.4075110509793098e-10  3.0894762780554504e-10  3.5854728616722642e-10  3.7635644584900760e-10  3.5735334928126984e-10  3.0697575674528742e-10  2.3860962026099345e-10  1.6785213049491151e-10  1.0688210275030222e-10  6.1618602456775154e-11  3.2169073563671428e-11  1.5211352053991032e-11  6.5154474346389380e-12  2.5274390100726480e-12  8.8682948175072182e-13  2.8006622113289825e-13  7.8033371505393207e-14  1.7466017491226501e-14  1.1900273222204220e-15  -2.6376635039212253e-15  -3.3242105619623644e-15  -3.3043095754392432e-15  -3.1491440624523952e-15  -2.9786687757179993e-15  -2.8149759295616077e-15  -2.6611382906888022e-15  -2.5169528910605634e-15  -2.3817591315788326e-15  -2.2548877920306091e-15  -2.1357206513536078e-15  -2.0236930172780964e-15  -1.9182892158928758e-15  -1.8190377742822838e-15  -1.7255070498987284e-15  -1.6373013603526555e-15  -1.5540574206765462e-15  -1.4754411519278861e-15  -1.4011452252087775e-15  -1.3308515124876948e-15  -1.2646800002393574e-15  -1.1991286090162150e-15  -1.1655884916816282e-15  -6.5708670996964732e-18  3.4710924837472683e-17  2.9856840650660741e-17  2.9263342720979984e-17  2.8336844270183081e-17  2.8086840295548574e-17  3.1971078206192161e-17  6.2717823986304710e-17  2.5861380895071997e-16  1.3756579057868916e-15  7.1171708004858155e-15  3.3720421709839516e-14  1.4479236592095199e-13  5.6241031337316295e-13  1.9753917288286720e-12  6.2734401803471298e-12  1.8013475303023291e-11  4.6765224714468135e-11  1.0976944100157105e-10  2.3295732364618975e-10  4.4700907344503642e-10  7.7556035799689551e-10  1.2167314736874294e-09  1.7261609428799228e-09  2.2146760526973070e-09  2.5699479617802935e-09  2.6975814775916501e-09  2.5616519792276659e-09  2.2010429561164102e-09  1.7114947892434309e-09  1.2046070812922762e-09  7.6759173435308718e-10  4.4292537344343263e-10  2.3150178410654492e-10  1.0962674972737563e-10  4.7047374343058546e-11  1.8302929011536842e-11  6.4555219893188739e-12  2.0635806641393730e-12  5.9652131574291153e-13  1.5434789011854601e-13  3.4024564917531814e-14  4.5231015903864087e-15  -1.9033619096032600e-15  -3.0475497475097354e-15  -3.1068004334094354e-15  -2.9722438403222691e-15  -2.8140350818287456e-15  -2.6609657042437509e-15  -2.5168828924099234e-15  -2.3817055632176132e-15  -2.2548400539685472e-15  -2.1356771843290451e-15  -2.0236532948193136e-15  -1.9182528572338792e-15  -1.8190044492592886e-15  -1.7254764651905523e-15  -1.6372732550259108e-15  -1.5540315664733573e-15  -1.4754174066814056e-15  -1.4011241001228444e-15  -1.3308352341998679e-15  -1.2646616648513202e-15  -1.1990490162364054e-15  -1.1654394227077595e-15  1.7461717528571394e-16  1.0507991037249965e-16  1.1260998990301066e-16  1.1009853418981259e-16  1.0554232108908645e-16  1.0131053315365236e-16  1.1999443847472624e-16  3.1149008081584275e-16  1.5842318348456386e-15  8.8930390164251530e-15  4.6478816016728357e-14  2.2052095457453570e-13  9.4658073061790336e-13  3.6742718807588639e-12  1.2896004889956557e-11  4.0925901505446574e-11  1.1743418210240599e-10  3.0467817928426800e-10  7.1472650009721305e-10  1.5159884321451183e-09  2.9075052836239106e-09  5.0423274927510382e-09  7.9077256415389132e-09  1.1215370624276954e-08  1.4386545040581683e-08  1.6692746836900128e-08  1.7521995541308027e-08  1.6641345712626647e-08  1.4302625802524344e-08  1.1126219119507506e-08  7.8356443506785857e-09  4.9968543267720851e-09  2.8861713933441898e-09  1.5103197975692402e-09  7.1625020051037400e-10  3.0792676664178519e-10  1.2005060145163629e-10  4.2458803378825781e-11  1.3626798869026792e-11  3.9689385849370651e-12  1.0479863565052712e-12  2.4930423800784546e-13  5.1703897154027347e-14  7.5111290828794855e-15  -1.3355143487147516e-15  -2.8227098450075976e-15  -2.9291278784377319e-15  -2.8079984737860604e-15  -2.6601443703762084e-15  -2.5167370406788090e-15  -2.3816438376310072e-15  -2.2547915087089497e-15  -2.1356336427391137e-15  -2.0236135640252569e-15  -1.9182164953852651e-15  -1.8189711213798264e-15  -1.7254458778685653e-15  -1.6372451473559645e-15  -1.5540057083605977e-15  -1.4753936434687315e-15  -1.4011027656013385e-15  -1.3308176709375405e-15  -1.2646422937733591e-15  -1.1989885946737189e-15  -1.1653357553375188e-15  -1.3963086742647782e-16  -2.5049988685289485e-17  -4.1335946538448007e-17  -4.2446055183578927e-17  -3.9762221863266118e-17  -1.4379659984188745e-17  1.6512198884315799e-16  1.3871522635503518e-15  9.0475244504804217e-15  5.2564720564217750e-14  2.7574583273269467e-13  1.3079257553769630e-12  5.6099656761283908e-12  2.1758572447413473e-11  7.6310193959698651e-11  2.4199614425796252e-10  6.9390985531961112e-10  1.7991405551833059e-09  4.2179135961035606e-09  8.9414737899536145e-09  1.7140110313417442e-08  2.9712013456758390e-08  4.6579273585981635e-08  6.6043722441353985e-08  8.4701854895496082e-08  9.8272003042643946e-08  1.0315826110083323e-07  9.7991029466946969e-08  8.4247412720239552e-08  6.5569781118241813e-08  4.6208939405408978e-08  2.9493818723184085e-08  1.7054390270915508e-08  8.9365405875065139e-09  4.2449236586437899e-09  1.8284760142928561e-09  7.1448537329561684e-10  2.5337470730366843e-10  8.1582089705616407e-11  2.3860934773943189e-11  6.3414160687236524e-12  1.5307466764362697e-12  3.3413275265982883e-13  6.4235276374253023e-14  9.0576378392354839e-15  -1.0832544098153490e-15  -2.6627493446138481e-15  -2.7705624090828780e-15  -2.6552652981943825e-15  -2.5161079587135210e-15  -2.3815288694420462e-15  -2.2547374981766100e-15  -2.1355895683958381e-15  -2.0235737794190512e-15  -1.9181801250488075e-15  -1.8189377897604994e-15  -1.7254152876830978e-15  -1.6372170371561666e-15  -1.5539798469517739e-15  -1.4753698659624444e-15  -1.4010812664434861e-15  -1.3307992207933836e-15  -1.2646225618866754e-15  -1.1989413245920963e-15  -1.1652606444784393e-15  3.7433659296995314e-16  1.8739269998997289e-16  2.1736643770010726e-16  2.2208530899211451e-16  2.3479082318899394e-16  3.4735126549127554e-16  1.2701479594445247e-15  7.7971788871851333e-15  4.9008108132268842e-14  2.8327926894810755e-13  1.4840580881532139e-12  7.0329945762944469e-12  3.0141177753173629e-11  1.1681122391390569e-10  4.0935694190314338e-10  1.2971975496020007e-09  3.7170049043492195e-09  9.6308364468105656e-09  2.2564434815482305e-08  4.7806387686054407e-08  9.1593855339347322e-08  1.5870507307113729e-07  2.4870944064492457e-07  3.5254291337396350e-07  4.5206404821819956e-07  5.2446348309234820e-07  5.5058721818966124e-07  5.2313073133612576e-07  4.4994011094128325e-07  3.5039370545116977e-07  2.4712776576355892e-07  1.5789456616427763e-07  9.1415683454194397e-08  4.7975692227929055e-08  2.2830784266531889e-08  9.8556690497659760e-09  3.8610076797010306e-09  1.3733076453984064e-09  4.4372507599929302e-10  1.3031387835406759e-10  3.4807249426180799e-11  8.4605740225730538e-12  1.8714077559354441e-12  3.7531882244590789e-13  6.6554964411176184e-14  8.6378556362669298e-15  -1.1565931936563412e-15  -2.5562122686381568e-15  -2.6271329878853996e-15  -2.5126549788387129e-15  -2.3810959254358093e-15  -2.2546501688550572e-15  -2.1355422374447150e-15  -2.0235336979616107e-15  -1.9181437284265654e-15  -1.8189044540996711e-15  -1.7253846949507049e-15  -1.6371889245038644e-15  -1.5539539826792959e-15  -1.4753460765715205e-15  -1.4010596403383531e-15  -1.3307801664616536e-15  -1.2646027891391559e-15  -1.1989030857613051e-15  -1.1652041147269815e-15  -4.7742792574273584e-16  -1.7688914669021447e-16  -2.3228452107661959e-16  -2.3872605085319957e-16  -1.7728097130650570e-16  4.2075550590758307e-16  5.0322319268553383e-15  3.7100219690054145e-14  2.3870369918954354e-13  1.3829376495452003e-12  7.2417774999581450e-12  3.4291684621422816e-11  1.4684203854345392e-10  5.6862157407368772e-10  1.9911312034482611e-09  6.3048523094629877e-09  1.8052906669193473e-08  4.6743357370798210e-08  1.0944655431538918e-07  2.3174421587713965e-07  4.4377476206767605e-07  7.6858730345548036e-07  1.2040349426620580e-06  1.7062688096666843e-06  2.1876341088867195e-06  2.5379710244829621e-06  2.6647648980820616e-06  2.5326591161146826e-06  2.1793926392729741e-06  1.6984024067323878e-06  1.1989693904101094e-06  7.6694648817800322e-07  4.4468297415599686e-07  2.3378494380366934e-07  1.1148850663596663e-07  4.8247537421583708e-08  1.8956390917229727e-08  6.7654910657961155e-09  2.1946351555878221e-09  6.4749270303313238e-10  1.7387878462347195e-10  4.2536919439700380e-11  9.4877689165054075e-12  1.9300853644560778e-12  3.5685605027798655e-13  5.8304240987254105e-14  6.6456967226350460e-15  -1.4278800874898251e-15  -2.4764256728854480e-15  -2.4939584643628196e-15  -2.3788971076724811e-15  -2.2543711866608091e-15  -2.1354752603674575e-15  -2.0234916855944786e-15  -1.9181071418545966e-15  -1.8188710961557271e-15  -1.7253540969789220e-15  -1.6371608088277448e-15  -1.5539281156191520e-15  -1.4753222770352734e-15  -1.4010379179423066e-15  -1.3307607036503324e-15  -1.2645831119122998e-15  -1.1988710790546663e-15  -1.1651599594393988e-15  8.9476214806179891e-16  4.1846278624285153e-16  5.2274779808281583e-16  5.8769388049066486e-16  9.2020598359303201e-16  3.5719154564785603e-15  2.3977466900603801e-14  1.6612729831953965e-13  1.0596659031992118e-12  6.1273901518449745e-12  3.2053477756431699e-11  1.5164785997974469e-10  6.4882904307082095e-10  2.5104117510095214e-09  8.7836110380474953e-09  2.7791463965395736e-08  7.9517220206313629e-08  2.0574483779761110e-07  4.8142362587112129e-07  1.0187701009558443e-06  1.9498565029849051e-06  3.3755337260100224e-06  5.2861582000090924e-06  7.4894455479984248e-06  9.6014000028355725e-06  1.1139567908475337e-05  1.1698620020071691e-05  1.1123138732849383e-05  9.5774733930955857e-06  7.4700026994046973e-06  5.2791437836456061e-06  3.3815675619356181e-06  1.9639786410550365e-06  1.0346340948068097e-06  4.9459814716064504e-07  2.1