<?xml version="1.0"?>
<VTKFile type="UnstructuredGrid"  version="0.1"  >
<UnstructuredGrid>
<Piece  NumberOfPoints="4225" NumberOfCells="8192">
<Points>
<DataArray  type="Float64"  NumberOfComponents="3"  format="ascii">0 0 0  0.015625 0 0  0.03125 0 0  0.046875 0 0  0.0625 0 0  0.078125 0 0  0.09375 0 0  0.109375 0 0  0.125 0 0  0.140625 0 0  0.15625 0 0  0.171875 0 0  0.1875 0 0  0.203125 0 0  0.21875 0 0  0.234375 0 0  0.25 0 0  0.265625 0 0  0.28125 0 0  0.296875 0 0  0.3125 0 0  0.328125 0 0  0.34375 0 0  0.359375 0 0  0.375 0 0  0.390625 0 0  0.40625 0 0  0.421875 0 0  0.4375 0 0  0.453125 0 0  0.46875 0 0  0.484375 0 0  0.5 0 0  0.515625 0 0  0.53125 0 0  0.546875 0 0  0.5625 0 0  0.578125 0 0  0.59375 0 0  0.609375 0 0  0.625 0 0  0.640625 0 0  0.65625 0 0  0.671875 0 0  0.6875 0 0  0.703125 0 0  0.71875 0 0  0.734375 0 0  0.75 0 0  0.765625 0 0  0.78125 0 0  0.796875 0 0  0.8125 0 0  0.828125 0 0  0.84375 0 0  0.859375 0 0  0.875 0 0  0.890625 0 0  0.90625 0 0  0.921875 0 0  0.9375 0 0  0.953125 0 0  0.96875 0 0  0.984375 0 0  1 0 0  0 0.015625 0  0.015625 0.015625 0  0.03125 0.015625 0  0.046875 0.015625 0  0.0625 0.015625 0  0.078125 0.015625 0  0.09375 0.015625 0  0.109375 0.015625 0  0.125 0.015625 0  0.140625 0.015625 0  0.15625 0.015625 0  0.171875 0.015625 0  0.1875 0.015625 0  0.203125 0.015625 0  0.21875 0.015625 0  0.234375 0.015625 0  0.25 0.015625 0  0.265625 0.015625 0  0.28125 0.015625 0  0.296875 0.015625 0  0.3125 0.015625 0  0.328125 0.015625 0  0.34375 0.015625 0  0.359375 0.015625 0  0.375 0.015625 0  0.390625 0.015625 0  0.40625 0.015625 0  0.421875 0.015625 0  0.4375 0.015625 0  0.453125 0.015625 0  0.46875 0.015625 0  0.484375 0.015625 0  0.5 0.015625 0  0.515625 0.015625 0  0.53125 0.015625 0  0.546875 0.015625 0  0.5625 0.015625 0  0.578125 0.015625 0  0.59375 0.015625 0  0.609375 0.015625 0  0.625 0.015625 0  0.640625 0.015625 0  0.65625 0.015625 0  0.671875 0.015625 0  0.6875 0.015625 0  0.703125 0.015625 0  0.71875 0.015625 0  0.734375 0.015625 0  0.75 0.015625 0  0.765625 0.015625 0  0.78125 0.015625 0  0.796875 0.015625 0  0.8125 0.015625 0  0.828125 0.015625 0  0.84375 0.015625 0  0.859375 0.015625 0  0.875 0.015625 0  0.890625 0.015625 0  0.90625 0.015625 0  0.921875 0.015625 0  0.9375 0.015625 0  0.953125 0.015625 0  0.96875 0.015625 0  0.984375 0.015625 0  1 0.015625 0  0 0.03125 0  0.015625 0.03125 0  0.03125 0.03125 0  0.046875 0.03125 0  0.0625 0.03125 0  0.078125 0.03125 0  0.09375 0.03125 0  0.109375 0.03125 0  0.125 0.03125 0  0.140625 0.03125 0  0.15625 0.03125 0  0.171875 0.03125 0  0.1875 0.03125 0  0.203125 0.03125 0  0.21875 0.03125 0  0.234375 0.03125 0  0.25 0.03125 0  0.265625 0.03125 0  0.28125 0.03125 0  0.296875 0.03125 0  0.3125 0.03125 0  0.328125 0.03125 0  0.34375 0.03125 0  0.359375 0.03125 0  0.375 0.03125 0  0.390625 0.03125 0  0.40625 0.03125 0  0.421875 0.03125 0  0.4375 0.03125 0  0.453125 0.03125 0  0.46875 0.03125 0  0.484375 0.03125 0  0.5 0.03125 0  0.515625 0.03125 0  0.53125 0.03125 0  0.546875 0.03125 0  0.5625 0.03125 0  0.578125 0.03125 0  0.59375 0.03125 0  0.609375 0.03125 0  0.625 0.03125 0  0.640625 0.03125 0  0.65625 0.03125 0  0.671875 0.03125 0  0.6875 0.03125 0  0.703125 0.03125 0  0.71875 0.03125 0  0.734375 0.03125 0  0.75 0.03125 0  0.765625 0.03125 0  0.78125 0.03125 0  0.796875 0.03125 0  0.8125 0.03125 0  0.828125 0.03125 0  0.84375 0.03125 0  0.859375 0.03125 0  0.875 0.03125 0  0.890625 0.03125 0  0.90625 0.03125 0  0.921875 0.03125 0  0.9375 0.03125 0  0.953125 0.03125 0  0.96875 0.03125 0  0.984375 0.03125 0  1 0.03125 0  0 0.046875 0  0.015625 0.046875 0  0.03125 0.046875 0  0.046875 0.046875 0  0.0625 0.046875 0  0.078125 0.046875 0  0.09375 0.046875 0  0.109375 0.046875 0  0.125 0.046875 0  0.140625 0.046875 0  0.15625 0.046875 0  0.171875 0.046875 0  0.1875 0.046875 0  0.203125 0.046875 0  0.21875 0.046875 0  0.234375 0.046875 0  0.25 0.046875 0  0.265625 0.046875 0  0.28125 0.046875 0  0.296875 0.046875 0  0.3125 0.046875 0  0.328125 0.046875 0  0.34375 0.046875 0  0.359375 0.046875 0  0.375 0.046875 0  0.390625 0.046875 0  0.40625 0.046875 0  0.421875 0.046875 0  0.4375 0.046875 0  0.453125 0.046875 0  0.46875 0.046875 0  0.484375 0.046875 0  0.5 0.046875 0  0.515625 0.046875 0  0.53125 0.046875 0  0.546875 0.046875 0  0.5625 0.046875 0  0.578125 0.046875 0  0.59375 0.046875 0  0.609375 0.046875 0  0.625 0.046875 0  0.640625 0.046875 0  0.65625 0.046875 0  0.671875 0.046875 0  0.6875 0.046875 0  0.703125 0.046875 0  0.71875 0.046875 0  0.734375 0.046875 0  0.75 0.046875 0  0.765625 0.046875 0  0.78125 0.046875 0  0.796875 0.046875 0  0.8125 0.046875 0  0.828125 0.046875 0  0.84375 0.046875 0  0.859375 0.046875 0  0.875 0.046875 0  0.890625 0.046875 0  0.90625 0.046875 0  0.921875 0.046875 0  0.9375 0.046875 0  0.953125 0.046875 0  0.96875 0.046875 0  0.984375 0.046875 0  1 0.046875 0  0 0.0625 0  0.015625 0.0625 0  0.03125 0.0625 0  0.046875 0.0625 0  0.0625 0.0625 0  0.078125 0.0625 0  0.09375 0.0625 0  0.109375 0.0625 0  0.125 0.0625 0  0.140625 0.0625 0  0.15625 0.0625 0  0.171875 0.0625 0  0.1875 0.0625 0  0.203125 0.0625 0  0.21875 0.0625 0  0.234375 0.0625 0  0.25 0.0625 0  0.265625 0.0625 0  0.28125 0.0625 0  0.296875 0.0625 0  0.3125 0.0625 0  0.328125 0.0625 0  0.34375 0.0625 0  0.359375 0.0625 0  0.375 0.0625 0  0.390625 0.0625 0  0.40625 0.0625 0  0.421875 0.0625 0  0.4375 0.0625 0  0.453125 0.0625 0  0.46875 0.0625 0  0.484375 0.0625 0  0.5 0.0625 0  0.515625 0.0625 0  0.53125 0.0625 0  0.546875 0.0625 0  0.5625 0.0625 0  0.578125 0.0625 0  0.59375 0.0625 0  0.609375 0.0625 0  0.625 0.0625 0  0.640625 0.0625 0  0.65625 0.0625 0  0.671875 0.0625 0  0.6875 0.0625 0  0.703125 0.0625 0  0.71875 0.0625 0  0.734375 0.0625 0  0.75 0.0625 0  0.765625 0.0625 0  0.78125 0.0625 0  0.796875 0.0625 0  0.8125 0.0625 0  0.828125 0.0625 0  0.84375 0.0625 0  0.859375 0.0625 0  0.875 0.0625 0  0.890625 0.0625 0  0.90625 0.0625 0  0.921875 0.0625 0  0.9375 0.0625 0  0.953125 0.0625 0  0.96875 0.0625 0  0.984375 0.0625 0  1 0.0625 0  0 0.078125 0  0.015625 0.078125 0  0.03125 0.078125 0  0.046875 0.078125 0  0.0625 0.078125 0  0.078125 0.078125 0  0.09375 0.078125 0  0.109375 0.078125 0  0.125 0.078125 0  0.140625 0.078125 0  0.15625 0.078125 0  0.171875 0.078125 0  0.1875 0.078125 0  0.203125 0.078125 0  0.21875 0.078125 0  0.234375 0.078125 0  0.25 0.078125 0  0.265625 0.078125 0  0.28125 0.078125 0  0.296875 0.078125 0  0.3125 0.078125 0  0.328125 0.078125 0  0.34375 0.078125 0  0.359375 0.078125 0  0.375 0.078125 0  0.390625 0.078125 0  0.40625 0.078125 0  0.421875 0.078125 0  0.4375 0.078125 0  0.453125 0.078125 0  0.46875 0.078125 0  0.484375 0.078125 0  0.5 0.078125 0  0.515625 0.078125 0  0.53125 0.078125 0  0.546875 0.078125 0  0.5625 0.078125 0  0.578125 0.078125 0  0.59375 0.078125 0  0.609375 0.078125 0  0.625 0.078125 0  0.640625 0.078125 0  0.65625 0.078125 0  0.671875 0.078125 0  0.6875 0.078125 0  0.703125 0.078125 0  0.71875 0.078125 0  0.734375 0.078125 0  0.75 0.078125 0  0.765625 0.078125 0  0.78125 0.078125 0  0.796875 0.078125 0  0.8125 0.078125 0  0.828125 0.078125 0  0.84375 0.078125 0  0.859375 0.078125 0  0.875 0.078125 0  0.890625 0.078125 0  0.90625 0.078125 0  0.921875 0.078125 0  0.9375 0.078125 0  0.953125 0.078125 0  0.96875 0.078125 0  0.984375 0.078125 0  1 0.078125 0  0 0.09375 0  0.015625 0.09375 0  0.03125 0.09375 0  0.046875 0.09375 0  0.0625 0.09375 0  0.078125 0.09375 0  0.09375 0.09375 0  0.109375 0.09375 0  0.125 0.09375 0  0.140625 0.09375 0  0.15625 0.09375 0  0.171875 0.09375 0  0.1875 0.09375 0  0.203125 0.09375 0  0.21875 0.09375 0  0.234375 0.09375 0  0.25 0.09375 0  0.265625 0.09375 0  0.28125 0.09375 0  0.296875 0.09375 0  0.3125 0.09375 0  0.328125 0.09375 0  0.34375 0.09375 0  0.359375 0.09375 0  0.375 0.09375 0  0.390625 0.09375 0  0.40625 0.09375 0  0.421875 0.09375 0  0.4375 0.09375 0  0.453125 0.09375 0  0.46875 0.09375 0  0.484375 0.09375 0  0.5 0.09375 0  0.515625 0.09375 0  0.53125 0.09375 0  0.546875 0.09375 0  0.5625 0.09375 0  0.578125 0.09375 0  0.59375 0.09375 0  0.609375 0.09375 0  0.625 0.09375 0  0.640625 0.09375 0  0.65625 0.09375 0  0.671875 0.09375 0  0.6875 0.09375 0  0.703125 0.09375 0  0.71875 0.09375 0  0.734375 0.09375 0  0.75 0.09375 0  0.765625 0.09375 0  0.78125 0.09375 0  0.796875 0.09375 0  0.8125 0.09375 0  0.828125 0.09375 0  0.84375 0.09375 0  0.859375 0.09375 0  0.875 0.09375 0  0.890625 0.09375 0  0.90625 0.09375 0  0.921875 0.09375 0  0.9375 0.09375 0  0.953125 0.09375 0  0.96875 0.09375 0  0.984375 0.09375 0  1 0.09375 0  0 0.109375 0  0.015625 0.109375 0  0.03125 0.109375 0  0.046875 0.109375 0  0.0625 0.109375 0  0.078125 0.109375 0  0.09375 0.109375 0  0.109375 0.109375 0  0.125 0.109375 0  0.140625 0.109375 0  0.15625 0.109375 0  0.171875 0.109375 0  0.1875 0.109375 0  0.203125 0.109375 0  0.21875 0.109375 0  0.234375 0.109375 0  0.25 0.109375 0  0.265625 0.109375 0  0.28125 0.109375 0  0.296875 0.109375 0  0.3125 0.109375 0  0.328125 0.109375 0  0.34375 0.109375 0  0.359375 0.109375 0  0.375 0.109375 0  0.390625 0.109375 0  0.40625 0.109375 0  0.421875 0.109375 0  0.4375 0.109375 0  0.453125 0.109375 0  0.46875 0.109375 0  0.484375 0.109375 0  0.5 0.109375 0  0.515625 0.109375 0  0.53125 0.109375 0  0.546875 0.109375 0  0.5625 0.109375 0  0.578125 0.109375 0  0.59375 0.109375 0  0.609375 0.109375 0  0.625 0.109375 0  0.640625 0.109375 0  0.65625 0.109375 0  0.671875 0.109375 0  0.6875 0.109375 0  0.703125 0.109375 0  0.71875 0.109375 0  0.734375 0.109375 0  0.75 0.109375 0  0.765625 0.109375 0  0.78125 0.109375 0  0.796875 0.109375 0  0.8125 0.109375 0  0.828125 0.109375 0  0.84375 0.109375 0  0.859375 0.109375 0  0.875 0.109375 0  0.890625 0.109375 0  0.90625 0.109375 0  0.921875 0.109375 0  0.9375 0.109375 0  0.953125 0.109375 0  0.96875 0.109375 0  0.984375 0.109375 0  1 0.109375 0  0 0.125 0  0.015625 0.125 0  0.03125 0.125 0  0.046875 0.125 0  0.0625 0.125 0  0.078125 0.125 0  0.09375 0.125 0  0.109375 0.125 0  0.125 0.12
[...]
<PointData  Scalars="f_14"> 
<DataArray  type="Float64"  Name="f_14"  format="ascii">6.0639502497379237e-04  4.8207666382961249e-04  3.3166487270556088e-04  2.3405415163330938e-04  1.5973890261188748e-04  1.0771136611961970e-04  7.1069639202774119e-05  4.6022760202027725e-05  2.9178494869157033e-05  1.8109973020217017e-05  1.0990362216825962e-05  6.5167639575782995e-06  3.7717482832068249e-06  2.1288790971489045e-06  1.1706401287564029e-06  6.2651157277714977e-07  3.2599982000928932e-07  1.6475195717727613e-07  8.0778845246210804e-08  3.8382979637216795e-08  1.7654822775431036e-08  7.8518722044822208e-09  3.3725753818872722e-09  1.3973836719937265e-09  5.5784866970279614e-10  2.1430913853362640e-10  7.9133724158425450e-11  2.8051044587394877e-11  9.5338611566068218e-12  3.1029887033142154e-12  9.6589498170346551e-13  2.8717208803309758e-13  8.1433538011356271e-14  2.1990760795675652e-14  5.6454027655135028e-15  1.3749636798271524e-15  3.1693782487888907e-16  6.8911235631323811e-17  1.4036736597401251e-17  2.6113545194575324e-18  3.7960861802667535e-19  -2.8009674928506586e-20  -9.7375711758555457e-20  -1.0832012250956742e-19  -1.0989738870615751e-19  -1.1008476445085387e-19  -1.1008179714694639e-19  -1.1005475786239915e-19  -1.1002480624990184e-19  -1.0999436430263094e-19  -1.0996361493553903e-19  -1.0993246392252903e-19  -1.0990073845725423e-19  -1.0986818347668563e-19  -1.0983442664351362e-19  -1.0979892311882103e-19  -1.0976086856026968e-19  -1.0971904778532521e-19  -1.0967152256454616e-19  -1.0961484213294974e-19  -1.0954168882701755e-19  -1.0943315084264554e-19  -1.0923220731350384e-19  -1.0875109836499713e-19  -1.0734561936295507e-19  1.0631817886968195e-03  8.3654954431938635e-04  5.7844013452396136e-04  4.2161856373763867e-04  2.9230421700683889e-04  2.0209136355230547e-04  1.3626294424523648e-04  9.0406427545216639e-05  5.8717059652848952e-05  3.7376434884545261e-05  2.3276554920333824e-05  1.4175741594963094e-05  8.4331139696313436e-06  4.8965319087386353e-06  2.7720633221647194e-06  1.5286691799450946e-06  8.2029136798816434e-07  4.2787299663589066e-07  2.1671219158997189e-07  1.0646229078359194e-07  5.0671266567581594e-08  2.3339007675823743e-08  1.0390803012048816e-08  4.4662812202754289e-09  1.8511860005072123e-09  7.3897914025666562e-10  2.8376435599740314e-10  1.0468559029878616e-10  3.7057110316107935e-11  1.2570484103422196e-11  4.0808231466563209e-12  1.2660299606551713e-12  3.7477579205020558e-13  1.0567757262669400e-13  2.8328624014763866e-14  7.2030933687278058e-15  1.7327511429881603e-15  3.9316379051686662e-16  8.3830838216260639e-17  1.6687709230989306e-17  3.0346418201252225e-18  4.4283254512885402e-19  -1.4898354325204564e-20  -8.9836702605792724e-20  -1.0115452422160397e-19  -1.0270550166948308e-19  -1.0287544220853410e-19  -1.0286591389749670e-19  -1.0283493273430552e-19  -1.0280150163705516e-19  -1.0276766947964672e-19  -1.0273357741338601e-19  -1.0269914350213810e-19  -1.0266422174907591e-19  -1.0262859734318456e-19  -1.0259195791846476e-19  -1.0255385143309129e-19  -1.0251362998518249e-19  -1.0247038578387767e-19  -1.0242291840366137e-19  -1.0236989510116876e-19  -1.0231080528248049e-19  -1.0224986337070686e-19  -1.0221048157606043e-19  -1.0228715604631657e-19  2.2445482750155957e-03  1.8245975063975659e-03  1.3074948254615975e-03  9.7636189726053521e-04  6.9489983378932254e-04  4.9434131943321526e-04  3.4264989092811914e-04  2.3409618925600663e-04  1.5657884463203168e-04  1.0274646868039477e-04  6.5996946457253156e-05  4.1488184849777059e-05  2.5493495736957460e-05  1.5300629059829986e-05  8.9599895556054008e-06  5.1146173666889197e-06  2.8429601429624841e-06  1.5371953675498935e-06  8.0763418912378110e-07  4.1185819387448544e-07  2.0362613163993940e-07  9.7491933332581881e-08  4.5148012490506601e-08  2.0198561155992205e-08  8.7193124680162962e-09  3.6273099272054698e-09  1.4523784616793856e-09  5.5899743329113396e-10  2.0653897258307283e-10  7.3157752557734816e-11  2.4805667575296609e-11  8.0386214620075504e-12  2.4852847924130720e-12  7.3155538478589644e-13  2.0453725194489618e-13  5.4172908736192807e-14  1.3550729914797574e-14  3.1906258002894129e-15  7.0466299255762506e-16  1.4541167387630802e-16  2.7891118763565774e-17  4.9061541463881188e-18  7.3657513878116621e-19  3.7302235122959856e-20  -7.0777283803532394e-20  -8.6106815238378510e-20  -8.8070924284558654e-20  -8.8269938495282038e-20  -8.8255718377954697e-20  -8.8217939389167129e-20  -8.8177746024919314e-20  -8.8137273542554655e-20  -8.8096701661115355e-20  -8.8056018945679260e-20  -8.8015185322153926e-20  -8.7974139713104400e-20  -8.7932791112478365e-20  -8.7891002508064183e-20  -8.7848563140507395e-20  -8.7805135361366159e-20  -8.7760137076656965e-20  -8.7712439340732635e-20  -8.7659486942882804e-20  -8.7594524707900058e-20  -8.7497425125257704e-20  4.4757040156034609e-03  3.6969187511014818e-03  2.7172260183166851e-03  2.0763418146965448e-03  1.5180367690026302e-03  1.1088929074241302e-03  7.8976465141422821e-04  5.5497360167187557e-04  3.8196617133934909e-04  2.5814970139661689e-04  1.7088677273160329e-04  1.1079980486421978e-04  7.0272068220853128e-05  4.3564916998553390e-05  2.6371440335628612e-05  1.5572952277822277e-05  8.9616826437150262e-06  5.0204209124130784e-06  2.7349353395448965e-06  1.4472012116770391e-06  7.4299791990367244e-07  3.6967119111673123e-07  1.7802979802216391e-07  8.2887486866988563e-08  3.7261780009285489e-08  1.6153456022979602e-08  6.7442002965434761e-09  2.7081791536515886e-09  1.0444760889016463e-09  3.8631801158124414e-10  1.3680598284219013e-10  4.6299620143516132e-11  1.4943120820540291e-11  4.5880909482196240e-12  1.3363720115915586e-12  3.6808874886205276e-13  9.5544330420222183e-14  2.3286087988339517e-14  5.3089069108502488e-15  1.1280278849383492e-15  2.2255624354450908e-16  4.0599298152316324e-17  6.7856900214053126e-18  9.9239868931481821e-19  7.9770291187038353e-20  -5.2080667789959047e-20  -6.9484286820442773e-20  -7.1546558079079677e-20  -7.1731376503685070e-20  -7.1706687997242726e-20  -7.1660690591846142e-20  -7.1612695568210167e-20  -7.1564503673372240e-20  -7.1516264011821079e-20  -7.1467983576610637e-20  -7.1419656066971483e-20  -7.1371271278604032e-20  -7.1322814661248966e-20  -7.1274266522726531e-20  -7.1225603149025309e-20  -7.1176805945920478e-20  -7.1127898894612330e-20  -7.1079082113543132e-20  -7.1031188951154533e-20  -7.0987235755568931e-20  8.5573118740327747e-03  7.1857852679206025e-03  5.4316417852458415e-03  4.2487958957440125e-03  3.1899673819134559e-03  2.3907932670871172e-03  1.7496098854343875e-03  1.2638383685680192e-03  8.9485920433519180e-04  6.2264091428520087e-04  4.2463544325365164e-04  2.8387355359584210e-04  1.8576612617602915e-04  1.1891978997486167e-04  7.4390018775823545e-05  4.5430929227420654e-05  2.7058561603415655e-05  1.5700947724859096e-05  8.8662070860948961e-06  4.8669609011065251e-06  2.5940870209025515e-06  1.3409308215903039e-06  6.7142484313755683e-07  3.2525223453418327e-07  1.5223833126940137e-07  6.8761144530800537e-08  2.9928993286727936e-08  1.2535946178081950e-08  5.0452196776573020e-09  1.9477657340012889e-09  7.1995871950334520e-10  2.5424176788096006e-10  8.5556894682561166e-11  2.7356697255630807e-11  8.2840030838229031e-12  2.3670892205861918e-12  6.3580638111409552e-13  1.5990966026589869e-13  3.7513856357996220e-14  8.1785837428623193e-15  1.6513690864526095e-15  3.0782583429144422e-16  5.2798064838172260e-17  8.2811886489731561e-18  1.1524339091097024e-18  1.0737315919627377e-19  -3.2596626896460379e-20  -4.9659505441502292e-20  -5.1509910116322958e-20  -5.1646006998275270e-20  -5.1606388843114817e-20  -5.1550371096343730e-20  -5.1492940137591603e-20  -5.1435372371393541e-20  -5.1377766827251627e-20  -5.1320129658311946e-20  -5.1262460376514830e-20  -5.1204757439073706e-20  -5.1147018273487559e-20  -5.1089238184136510e-20  -5.1031407402165482e-20  -5.0973502337806210e-20  -5.0915458436762130e-20  -5.0857083389751372e-20  -5.0797774157369303e-20  1.5668446546864310e-02  1.3373433842715859e-02  1.0388621038841493e-02  8.3111522157807930e-03  6.4045865783386629e-03  4.9229277056897459e-03  3.7005149343158003e-03  2.7464424826588083e-03  1.9998617377997028e-03  1.4319622630540824e-03  1.0057686499287718e-03  6.9298067475763773e-04  4.6774684922386951e-04  3.0908971959031330e-04  1.9974239914169532e-04  1.2611736999821048e-04  7.7721037974023770e-05  4.6699723610617994e-05  2.7329016575610586e-05  1.5559064248968245e-05  8.6077295139711881e-06  4.6219347610073065e-06  2.4057872420976934e-06  1.2123920679267554e-06  5.9076944790384000e-07  2.7796975749443331e-07  1.2611485784573212e-07  5.5088752313769616e-08  2.3129011402151214e-08  9.3157705123197536e-09  3.5915741373392963e-09  1.3219911472769881e-09  4.6317179596717095e-10  1.5393590352552039e-10  4.8348847303461004e-11  1.4293665119679589e-11  3.9612819719381217e-12  1.0249676853374228e-12  2.4665737180060643e-13  5.5009283775689535e-14  1.1332622649808294e-14  2.1504388667716819e-15  3.7490117464913520e-16  5.9901267538984646e-17  8.7379077664233792e-18  1.1435859816413899e-18  1.1503396916721651e-19  -1.1865310744842130e-20  -2.6064755039896240e-20  -2.7454516385937389e-20  -2.7521443611508870e-20  -2.7464267042235015e-20  -2.7396504682679459e-20  -2.7327890700907419e-20  -2.7259185641969968e-20  -2.7190442102991084e-20  -2.7121663666538976e-20  -2.7052850292492352e-20  -2.6984001786715147e-20  -2.6915117900651745e-20  -2.6846198716127107e-20  -2.6777245903909313e-20  -2.6708267179213301e-20  -2.6639291313116207e-20  -2.6570418096634554e-20  2.7458712809090194e-02  2.3817347600772278e-02  1.9000991051506589e-02  1.5542113692836868e-02  1.2287591721093579e-02  9.6825872745942149e-03  7.4725689009988074e-03  5.6956871272956398e-03  4.2635002417768918e-03  3.1402175106039591e-03  2.2706266728187282e-03  1.6117981226592979e-03  1.1217281743886214e-03  7.6487320354673058e-04  5.1044737163396777e-04  3.3310430416343730e-04  2.1233411971845331e-04  1.3207581137379264e-04  8.0077918981300562e-05  4.7271878932940273e-05  2.7138574159847352e-05  1.5133714263667662e-05  8.1872886567008773e-06  4.2915568616790077e-06  2.1766579553921842e-06  1.0667309691424979e-06  5.0437118896833598e-07  2.2969248083645640e-07  1.0055694370855799e-07  4.2225488707585218e-08  1.6962510420356452e-08  6.4985997904106042e-09  2.3660926409284811e-09  8.1550818098498896e-10  2.6497057354949800e-10  8.0812805442998064e-11  2.3037632359380112e-11  6.1138504143531339e-12  1.5048141418127213e-12  3.4234919083832903e-13  7.1774234546071835e-14  1.3830618431429530e-14  2.4440288145001886e-15  3.9529768036909535e-16  5.8423379998089419e-17  7.8800346425694545e-18  9.6955546168231488e-19  1.0954676313072321e-19  1.2269094656583474e-20  2.3353068339617547e-21  1.4811276726239076e-21  1.4835279850005635e-21  1.5592087750576229e-21  1.6406223692784965e-21  1.7224732513816401e-21  1.8043911143928535e-21  1.8863506894868404e-21  1.9683509317866433e-21  2.0503916259648437e-21  2.1324728428024680e-21  2.2145947373235010e-21  2.2967578720552265e-21  2.3789640336861596e-21  2.4612189932034298e-21  2.5435415652012282e-21  4.6030377970544330e-02  4.0566044494711510e-02  3.3214079517935181e-02  2.7767305146701064e-02  2.2509955355614997e-02  1.8176054679115400e-02  1.4394910794886872e-02  1.1263215744491633e-02  8.6632095011284112e-03  6.5606327385246315e-03  4.8816847096687238e-03  3.5685987255660071e-03  2.5597143254093785e-03  1.8003452472604056e-03  1.2403254106336560e-03  8.3625550138556864e-04  5.5120404622639057e-04  3.5482173530965210e-04  2.2282064719801768e-04  1.3635205903685810e-04  8.1212044233771628e-05  4.7022694724673281e-05  2.6434863121797770e-05  1.4409866628801776e-05  7.6059551331544779e-06  3.8815809152672174e-06  1.9120664917908454e-06  9.0742513298171393e-07  4.1396371390644813e-07  1.8105312782892644e-07  7.5680350421772776e-08  3.0124804146715216e-08  1.1373015682775322e-08  4.0546447983906902e-09  1.3589749983675996e-09  4.2630746283329988e-10  1.2463530269889817e-10  3.3826156807836624e-11  8.4919689634619432e-12  1.9657862724150021e-12  4.1844754295894492e-13  8.1713563512992317e-14  1.4608953757099105e-14  2.3871331064996084e-15  3.5601330674687290e-16  4.8424854784273975e-17  6.0253927927952554e-18  7.1038269156376386e-19  1.0499752105697353e-19  4.2455628384094910e-20  3.6670306026232364e-20  3.6266539385238664e-20  3.6325152892728856e-20  3.6419871965570277e-20  3.6517167434444550e-20  3.6614677305767282e-20  3.6712242902057206e-20  3.6809856977811990e-20  3.6907518398392413e-20  3.7005227226956876e-20  3.7102983296614958e-20  3.7200786465597845e-20  3.7298636373342489e-20  3.7396531994712667e-20  3.7494470030119487e-20  7.3766074916660790e-02  6.6035814031342024e-02  5.5452316771947945e-02  4.7363007169301884e-02  3.9347351611816163e-02  3.2542253015969046e-02  2.6434267880232558e-02  2.1222552188094032e-02  1.6765021289660488e-02  1.3048140576761378e-02  9.9865858955503501e-03  7.5148595746371404e-03  5.5532894105832118e-03  4.0271909620537474e-03  2.8630774988029476e-03  1.9936587922799588e-03  1.3583356588617501e-03  9.0460139713425083e-04  5.8820133889530115e-04  3.7301509885226121e-04  2.3043475772621409e-04  1.3850372525028330e-04  8.0893028092266441e-05  4.5846810222188245e-05  2.5177924454159057e-05  1.3376341067790938e-05  6.8619943000027535e-06  3.3915778637362166e-06  1.6108145862428785e-06  7.3285000293018682e-07  3.1821079959193137e-07  1.3132388351669843e-07  5.1280045679594549e-08  1.8858172938456401e-08  6.5009039640267123e-09  2.0913522421666849e-09  6.2524870574613501e-10  1.7306745117420919e-10  4.4204583476084592e-11  1.0388397707465964e-11  2.2406632738053449e-12  4.4261889581029719e-13  7.9933628090945978e-14  1.3177125491565304e-14  1.9804437282501531e-15  2.7112718022872168e-16  3.3832515997623554e-17  3.8994944767131330e-18  4.7078683114248900e-19  1.1442555338427133e-19  8.0916426867119954e-20  7.8156383458099820e-20  7.8048989804458987e-20  7.8149200861215539e-20  7.8264095062400227e-20  7.8380004443841370e-20  7.8496018790624292e-20  7.8612093757697994e-20  7.8728224028118282e-20  7.8844410136070620e-20  7.8960651706162432e-20  7.9076948720536690e-20  7.9193301093314190e-20  7.9309708898803545e-20  7.9426172610308600e-20  1.1294022226184061e-01  1.0267550190969436e-01  8.8366171010540090e-02  7.7077612705501383e-02  6.5582107560639299e-02  5.5528803093541551e-02  4.6239890373249458e-02  3.8072677321392377e-02  3.0874042148664276e-02  2.4683658917525646e-02  1.9423065313397103e-02  1.5038353368339540e-02  1.1443881958326142e-02  8.5531878388565644e-03  6.2723786855381145e-03  4.5091513551498872e-03  3.1744842040663463e-03  2.1863734410066627e-03  1.4715514311158923e-03  9.6680583107839029e-04  6.1930304310173277e-04  3.8630588604511714e-04  2.3434401084118775e-04  1.3805614274566978e-04  7.8859248485850221e-05  4.3597114637561220e-05  2.3277563351308254e-05  1.1971946313799266e-05  5.9126198300918049e-06  2.7936737352009532e-06  1.2575185268699040e-06  5.3676156188394325e-07  2.1620411849440784e-07  8.1778727867433944e-08  2.8910957095146049e-08  9.5108663010133743e-09  2.8998920130175252e-09  8.1660924238312985e-10  2.1173050939040439e-10  5.0413202005987854e-11  1.0998249999457134e-11  2.1943191672262780e-12  3.9974444617329201e-13  6.6403847866818079e-14  1.0047335576974361e-14  1.3834895549128398e-15  1.7331759558592549e-16  1.9830048764791460e-17  2.1631126768001406e-18  3.1854982100703597e-19  1.4401298352920794e-19  1.2915853873354504e-19  1.2812909468715370e-19  1.2818462777095187e-19  1.2831699248474696e-19  1.2845444301117767e-19  1.2859222425365027e-19  1.2873009385152872e-19  1.2886802716594448e-19  1.2900602657644804e-19  1.2914409083445722e-19  1.2928222012523726e-19  1.2942041418121728e-19  1.2955867286437373e-19  1.2969699592019931e-19  1.6510001342084199e-01  1.5238474022703999e-01  1.3431725694025889e-01  1.1959011997707703e-01  1.0415305851579379e-01  9.0237212665306196e-02  7.6987873338287494e-02  6.4977505123322440e-02  5.4061664329083145e-02  4.4377166703112737e-02  3.5883261597924432e-02  2.8572275260998137e-02  2.2379904678477544e-02  1.7231363832701595e-02  1.3028921879208051e-02  9.6657465636096514e-03  7.0285271211891088e-03  5.0044317368482345e-03  3.4852729242331347e-03  2.3714999093589059e-03  1.5747013202591913e-03  1.0190990276089881e-03  6.4192911511497654e-04  3.9296580206970769e-04  2.3338061733252304e-04  1.3418955395725536e-04  7.4511339787502949e-05  3.9832726040419403e-05  2.0425344136579481e-05  1.0003493895962694e-05  4.6571609361980929e-06  2.0506258694548186e-06  8.4962257458285928e-07  3.2959549718539519e-07  1.1915966026334765e-07  3.9978963311421789e-08  1.2401027154944529e-08  3.5447776549141161e-09  9.3112640270340094e-10  2.2422469848477981e-10  4.9401770798814657e-11  9.9415741663029713e-12  1.8247778397503919e-12  3.0513809627142570e-13  4.6439636338250131e-14  6.4274542987051692e-15  8.0856675114612973e-16  9.2530534583195984e-17  9.7632990858696789e-18  1.0885955478883521e-18  2.6454666528330378e-19  1.9374964513196239e-19  1.8837442369648114e-19  1.8814697190896682e-19  1.8828504060030115e-19  1.8844705703037861e-19  1.8861043863579387e-19  1.8877399912865533e-19  1.8893763028273998e-19  1.8910134119529739e-19  1.8926512733257583e-19  1.8942898983919635e-19  1.8959292807871820e-19  1.8975694201728156e-19  1.8992103144800111e-19  2.3028927432421220e-01  2.1573210516296154e-01  1.9460818016054399e-01  1.7677805241066691e-01  1.5749099813011827e-01  1.3954551959729278e-01  1.2191026874211436e-01  1.0541203796412314e-01  8.9934118263107807e-02  7.5756391819020427e-02  6.2914149299748048e-02  5.1493372586997758e-02  4.1494428919607008e-02  3.2896527307691277e-02  2.5634369819653394e-02  1.9616505224446027e-02  1.4727119516964107e-02  1.0836128484587268e-02  7.8059187052482394e-03  5.4989516545971128e-03  3.7837405317646764e-03  2.5397323280919883e-03  1.6605714516181700e-03  1.0558827944749793e-03  6.5164232061028031e-04  3.8939625858626457e-04  2.2463071520838592e-04  1.2464196946695719e-04  6.6239398690819685e-05  3.3552392494689053e-05  1.6114757930286192e-05  7.2995812177049537e-06  3.1022128458238383e-06  1.2308354853787785e-06  4.5386417283702039e-07  1.5492071357419922e-07  4.8779302788351279e-08  1.4125526465276134e-08  3.7524439185522453e-09  9.1250686718039482e-10  2.0276493838907916e-10  4.1108808666151357e-11  7.5948735408087878e-12  1.2773160511073719e-12  1.9538541321221727e-13  2.7163797041238369e-14  3.4304608507006540e-15  3.9351267851927083e-16  4.1171700917824023e-17  4.1204049553809994e-18  5.8976578508125324e-19  2.8514306610948671e-19  2.6148867727715427e-19  2.5999540847315206e-19  2.6007983809856305e-19  2.6026738850606412e-19  2.6046067144939822e-19  2.6065446752168172e-19  2.6084833332645305e-19  2.6104230106478782e-19  2.6123635415826615e-19  2.6143049740000435e-19  2.6162472882363001e-19  2.6181904873629477e-19  2.6201345672050021e-19  3.0629886154735514e-01  2.9113389476118784e-01  2.6857880619384367e-01  2.4877623242903937e-01  2.2657368257524249e-01  2.0519536442775047e-01  1.8345041013642616e-01  1.6241635517220721e-01  1.4201093567413273e-01  1.2268712245089390e-01  1.0458874681032468e-01  8.7943746049705132e-02  7.2868605367490999e-02  5.9453676794212797e-02  4.7722298847907178e-02  3.7651923221472698e-02  2.9171203294335504e-02  2.2171251205808852e-02  1.6513212211231695e-02  1.2038979754098587e-02  8.5809562173725443e-03  5.9715389986502868e-03  4.0510954208460978e-03  2.6742141022646449e-03  1.7138466433207823e-03  1.0633255753852669e-03  6.3642837695638036e-04  3.6591655007148330e-04  2.0111566971451578e-04  1.0510481760246710e-04  5.1939792912411834e-05  2.4137171086729432e-05  1.0493155173134996e-05  4.2468924572296001e-06  1.5933795302199759e-06  5.5210915439176030e-07  1.7611401393535580e-07  5.1575524738239167e-08  1.3835014265308617e-08  3.3928895088586967e-09  7.5948646027663389e-10  1.5497184401203017e-10  2.8793019490795764e-11  4.8665721813362984e-12  7.477002097854