<?xml version="1.0"?>
<VTKFile type="UnstructuredGrid"  version="0.1"  >
<UnstructuredGrid>
<Piece  NumberOfPoints="4225" NumberOfCells="8192">
<Points>
<DataArray  type="Float64"  NumberOfComponents="3"  format="ascii">0 0 0  0.015625 0 0  0.03125 0 0  0.046875 0 0  0.0625 0 0  0.078125 0 0  0.09375 0 0  0.109375 0 0  0.125 0 0  0.140625 0 0  0.15625 0 0  0.171875 0 0  0.1875 0 0  0.203125 0 0  0.21875 0 0  0.234375 0 0  0.25 0 0  0.265625 0 0  0.28125 0 0  0.296875 0 0  0.3125 0 0  0.328125 0 0  0.34375 0 0  0.359375 0 0  0.375 0 0  0.390625 0 0  0.40625 0 0  0.421875 0 0  0.4375 0 0  0.453125 0 0  0.46875 0 0  0.484375 0 0  0.5 0 0  0.515625 0 0  0.53125 0 0  0.546875 0 0  0.5625 0 0  0.578125 0 0  0.59375 0 0  0.609375 0 0  0.625 0 0  0.640625 0 0  0.65625 0 0  0.671875 0 0  0.6875 0 0  0.703125 0 0  0.71875 0 0  0.734375 0 0  0.75 0 0  0.765625 0 0  0.78125 0 0  0.796875 0 0  0.8125 0 0  0.828125 0 0  0.84375 0 0  0.859375 0 0  0.875 0 0  0.890625 0 0  0.90625 0 0  0.921875 0 0  0.9375 0 0  0.953125 0 0  0.96875 0 0  0.984375 0 0  1 0 0  0 0.015625 0  0.015625 0.015625 0  0.03125 0.015625 0  0.046875 0.015625 0  0.0625 0.015625 0  0.078125 0.015625 0  0.09375 0.015625 0  0.109375 0.015625 0  0.125 0.015625 0  0.140625 0.015625 0  0.15625 0.015625 0  0.171875 0.015625 0  0.1875 0.015625 0  0.203125 0.015625 0  0.21875 0.015625 0  0.234375 0.015625 0  0.25 0.015625 0  0.265625 0.015625 0  0.28125 0.015625 0  0.296875 0.015625 0  0.3125 0.015625 0  0.328125 0.015625 0  0.34375 0.015625 0  0.359375 0.015625 0  0.375 0.015625 0  0.390625 0.015625 0  0.40625 0.015625 0  0.421875 0.015625 0  0.4375 0.015625 0  0.453125 0.015625 0  0.46875 0.015625 0  0.484375 0.015625 0  0.5 0.015625 0  0.515625 0.015625 0  0.53125 0.015625 0  0.546875 0.015625 0  0.5625 0.015625 0  0.578125 0.015625 0  0.59375 0.015625 0  0.609375 0.015625 0  0.625 0.015625 0  0.640625 0.015625 0  0.65625 0.015625 0  0.671875 0.015625 0  0.6875 0.015625 0  0.703125 0.015625 0  0.71875 0.015625 0  0.734375 0.015625 0  0.75 0.015625 0  0.765625 0.015625 0  0.78125 0.015625 0  0.796875 0.015625 0  0.8125 0.015625 0  0.828125 0.015625 0  0.84375 0.015625 0  0.859375 0.015625 0  0.875 0.015625 0  0.890625 0.015625 0  0.90625 0.015625 0  0.921875 0.015625 0  0.9375 0.015625 0  0.953125 0.015625 0  0.96875 0.015625 0  0.984375 0.015625 0  1 0.015625 0  0 0.03125 0  0.015625 0.03125 0  0.03125 0.03125 0  0.046875 0.03125 0  0.0625 0.03125 0  0.078125 0.03125 0  0.09375 0.03125 0  0.109375 0.03125 0  0.125 0.03125 0  0.140625 0.03125 0  0.15625 0.03125 0  0.171875 0.03125 0  0.1875 0.03125 0  0.203125 0.03125 0  0.21875 0.03125 0  0.234375 0.03125 0  0.25 0.03125 0  0.265625 0.03125 0  0.28125 0.03125 0  0.296875 0.03125 0  0.3125 0.03125 0  0.328125 0.03125 0  0.34375 0.03125 0  0.359375 0.03125 0  0.375 0.03125 0  0.390625 0.03125 0  0.40625 0.03125 0  0.421875 0.03125 0  0.4375 0.03125 0  0.453125 0.03125 0  0.46875 0.03125 0  0.484375 0.03125 0  0.5 0.03125 0  0.515625 0.03125 0  0.53125 0.03125 0  0.546875 0.03125 0  0.5625 0.03125 0  0.578125 0.03125 0  0.59375 0.03125 0  0.609375 0.03125 0  0.625 0.03125 0  0.640625 0.03125 0  0.65625 0.03125 0  0.671875 0.03125 0  0.6875 0.03125 0  0.703125 0.03125 0  0.71875 0.03125 0  0.734375 0.03125 0  0.75 0.03125 0  0.765625 0.03125 0  0.78125 0.03125 0  0.796875 0.03125 0  0.8125 0.03125 0  0.828125 0.03125 0  0.84375 0.03125 0  0.859375 0.03125 0  0.875 0.03125 0  0.890625 0.03125 0  0.90625 0.03125 0  0.921875 0.03125 0  0.9375 0.03125 0  0.953125 0.03125 0  0.96875 0.03125 0  0.984375 0.03125 0  1 0.03125 0  0 0.046875 0  0.015625 0.046875 0  0.03125 0.046875 0  0.046875 0.046875 0  0.0625 0.046875 0  0.078125 0.046875 0  0.09375 0.046875 0  0.109375 0.046875 0  0.125 0.046875 0  0.140625 0.046875 0  0.15625 0.046875 0  0.171875 0.046875 0  0.1875 0.046875 0  0.203125 0.046875 0  0.21875 0.046875 0  0.234375 0.046875 0  0.25 0.046875 0  0.265625 0.046875 0  0.28125 0.046875 0  0.296875 0.046875 0  0.3125 0.046875 0  0.328125 0.046875 0  0.34375 0.046875 0  0.359375 0.046875 0  0.375 0.046875 0  0.390625 0.046875 0  0.40625 0.046875 0  0.421875 0.046875 0  0.4375 0.046875 0  0.453125 0.046875 0  0.46875 0.046875 0  0.484375 0.046875 0  0.5 0.046875 0  0.515625 0.046875 0  0.53125 0.046875 0  0.546875 0.046875 0  0.5625 0.046875 0  0.578125 0.046875 0  0.59375 0.046875 0  0.609375 0.046875 0  0.625 0.046875 0  0.640625 0.046875 0  0.65625 0.046875 0  0.671875 0.046875 0  0.6875 0.046875 0  0.703125 0.046875 0  0.71875 0.046875 0  0.734375 0.046875 0  0.75 0.046875 0  0.765625 0.046875 0  0.78125 0.046875 0  0.796875 0.046875 0  0.8125 0.046875 0  0.828125 0.046875 0  0.84375 0.046875 0  0.859375 0.046875 0  0.875 0.046875 0  0.890625 0.046875 0  0.90625 0.046875 0  0.921875 0.046875 0  0.9375 0.046875 0  0.953125 0.046875 0  0.96875 0.046875 0  0.984375 0.046875 0  1 0.046875 0  0 0.0625 0  0.015625 0.0625 0  0.03125 0.0625 0  0.046875 0.0625 0  0.0625 0.0625 0  0.078125 0.0625 0  0.09375 0.0625 0  0.109375 0.0625 0  0.125 0.0625 0  0.140625 0.0625 0  0.15625 0.0625 0  0.171875 0.0625 0  0.1875 0.0625 0  0.203125 0.0625 0  0.21875 0.0625 0  0.234375 0.0625 0  0.25 0.0625 0  0.265625 0.0625 0  0.28125 0.0625 0  0.296875 0.0625 0  0.3125 0.0625 0  0.328125 0.0625 0  0.34375 0.0625 0  0.359375 0.0625 0  0.375 0.0625 0  0.390625 0.0625 0  0.40625 0.0625 0  0.421875 0.0625 0  0.4375 0.0625 0  0.453125 0.0625 0  0.46875 0.0625 0  0.484375 0.0625 0  0.5 0.0625 0  0.515625 0.0625 0  0.53125 0.0625 0  0.546875 0.0625 0  0.5625 0.0625 0  0.578125 0.0625 0  0.59375 0.0625 0  0.609375 0.0625 0  0.625 0.0625 0  0.640625 0.0625 0  0.65625 0.0625 0  0.671875 0.0625 0  0.6875 0.0625 0  0.703125 0.0625 0  0.71875 0.0625 0  0.734375 0.0625 0  0.75 0.0625 0  0.765625 0.0625 0  0.78125 0.0625 0  0.796875 0.0625 0  0.8125 0.0625 0  0.828125 0.0625 0  0.84375 0.0625 0  0.859375 0.0625 0  0.875 0.0625 0  0.890625 0.0625 0  0.90625 0.0625 0  0.921875 0.0625 0  0.9375 0.0625 0  0.953125 0.0625 0  0.96875 0.0625 0  0.984375 0.0625 0  1 0.0625 0  0 0.078125 0  0.015625 0.078125 0  0.03125 0.078125 0  0.046875 0.078125 0  0.0625 0.078125 0  0.078125 0.078125 0  0.09375 0.078125 0  0.109375 0.078125 0  0.125 0.078125 0  0.140625 0.078125 0  0.15625 0.078125 0  0.171875 0.078125 0  0.1875 0.078125 0  0.203125 0.078125 0  0.21875 0.078125 0  0.234375 0.078125 0  0.25 0.078125 0  0.265625 0.078125 0  0.28125 0.078125 0  0.296875 0.078125 0  0.3125 0.078125 0  0.328125 0.078125 0  0.34375 0.078125 0  0.359375 0.078125 0  0.375 0.078125 0  0.390625 0.078125 0  0.40625 0.078125 0  0.421875 0.078125 0  0.4375 0.078125 0  0.453125 0.078125 0  0.46875 0.078125 0  0.484375 0.078125 0  0.5 0.078125 0  0.515625 0.078125 0  0.53125 0.078125 0  0.546875 0.078125 0  0.5625 0.078125 0  0.578125 0.078125 0  0.59375 0.078125 0  0.609375 0.078125 0  0.625 0.078125 0  0.640625 0.078125 0  0.65625 0.078125 0  0.671875 0.078125 0  0.6875 0.078125 0  0.703125 0.078125 0  0.71875 0.078125 0  0.734375 0.078125 0  0.75 0.078125 0  0.765625 0.078125 0  0.78125 0.078125 0  0.796875 0.078125 0  0.8125 0.078125 0  0.828125 0.078125 0  0.84375 0.078125 0  0.859375 0.078125 0  0.875 0.078125 0  0.890625 0.078125 0  0.90625 0.078125 0  0.921875 0.078125 0  0.9375 0.078125 0  0.953125 0.078125 0  0.96875 0.078125 0  0.984375 0.078125 0  1 0.078125 0  0 0.09375 0  0.015625 0.09375 0  0.03125 0.09375 0  0.046875 0.09375 0  0.0625 0.09375 0  0.078125 0.09375 0  0.09375 0.09375 0  0.109375 0.09375 0  0.125 0.09375 0  0.140625 0.09375 0  0.15625 0.09375 0  0.171875 0.09375 0  0.1875 0.09375 0  0.203125 0.09375 0  0.21875 0.09375 0  0.234375 0.09375 0  0.25 0.09375 0  0.265625 0.09375 0  0.28125 0.09375 0  0.296875 0.09375 0  0.3125 0.09375 0  0.328125 0.09375 0  0.34375 0.09375 0  0.359375 0.09375 0  0.375 0.09375 0  0.390625 0.09375 0  0.40625 0.09375 0  0.421875 0.09375 0  0.4375 0.09375 0  0.453125 0.09375 0  0.46875 0.09375 0  0.484375 0.09375 0  0.5 0.09375 0  0.515625 0.09375 0  0.53125 0.09375 0  0.546875 0.09375 0  0.5625 0.09375 0  0.578125 0.09375 0  0.59375 0.09375 0  0.609375 0.09375 0  0.625 0.09375 0  0.640625 0.09375 0  0.65625 0.09375 0  0.671875 0.09375 0  0.6875 0.09375 0  0.703125 0.09375 0  0.71875 0.09375 0  0.734375 0.09375 0  0.75 0.09375 0  0.765625 0.09375 0  0.78125 0.09375 0  0.796875 0.09375 0  0.8125 0.09375 0  0.828125 0.09375 0  0.84375 0.09375 0  0.859375 0.09375 0  0.875 0.09375 0  0.890625 0.09375 0  0.90625 0.09375 0  0.921875 0.09375 0  0.9375 0.09375 0  0.953125 0.09375 0  0.96875 0.09375 0  0.984375 0.09375 0  1 0.09375 0  0 0.109375 0  0.015625 0.109375 0  0.03125 0.109375 0  0.046875 0.109375 0  0.0625 0.109375 0  0.078125 0.109375 0  0.09375 0.109375 0  0.109375 0.109375 0  0.125 0.109375 0  0.140625 0.109375 0  0.15625 0.109375 0  0.171875 0.109375 0  0.1875 0.109375 0  0.203125 0.109375 0  0.21875 0.109375 0  0.234375 0.109375 0  0.25 0.109375 0  0.265625 0.109375 0  0.28125 0.109375 0  0.296875 0.109375 0  0.3125 0.109375 0  0.328125 0.109375 0  0.34375 0.109375 0  0.359375 0.109375 0  0.375 0.109375 0  0.390625 0.109375 0  0.40625 0.109375 0  0.421875 0.109375 0  0.4375 0.109375 0  0.453125 0.109375 0  0.46875 0.109375 0  0.484375 0.109375 0  0.5 0.109375 0  0.515625 0.109375 0  0.53125 0.109375 0  0.546875 0.109375 0  0.5625 0.109375 0  0.578125 0.109375 0  0.59375 0.109375 0  0.609375 0.109375 0  0.625 0.109375 0  0.640625 0.109375 0  0.65625 0.109375 0  0.671875 0.109375 0  0.6875 0.109375 0  0.703125 0.109375 0  0.71875 0.109375 0  0.734375 0.109375 0  0.75 0.109375 0  0.765625 0.109375 0  0.78125 0.109375 0  0.796875 0.109375 0  0.8125 0.109375 0  0.828125 0.109375 0  0.84375 0.109375 0  0.859375 0.109375 0  0.875 0.109375 0  0.890625 0.109375 0  0.90625 0.109375 0  0.921875 0.109375 0  0.9375 0.109375 0  0.953125 0.109375 0  0.96875 0.109375 0  0.984375 0.109375 0  1 0.109375 0  0 0.125 0  0.015625 0.125 0  0.03125 0.125 0  0.046875 0.125 0  0.0625 0.125 0  0.078125 0.125 0  0.09375 0.125 0  0.109375 0.125 0  0.125 0.12
[...]
<PointData  Scalars="f_14"> 
<DataArray  type="Float64"  Name="f_14"  format="ascii">3.3868693808168349e-01  3.1375867036312138e-01  2.7640604491160198e-01  2.4017576161018442e-01  2.0329340086224745e-01  1.6811093887671388e-01  1.3545451638176345e-01  1.0628807564817469e-01  8.1104586363918568e-02  6.0117864611080582e-02  4.3231572355211606e-02  3.0123147470874471e-02  2.0311108361588170e-02  1.3235074426399264e-02  8.3230883526426505e-03  5.0442909827721231e-03  2.9420332145281567e-03  1.6488642381484702e-03  8.8665031903278825e-04  4.5674417051221711e-04  2.2503601577454076e-04  1.0587107928643731e-04  4.7480982604551232e-05  2.0264390701297576e-05  8.2159518480493189e-06  3.1587679957428981e-06  1.1495446279064910e-06  3.9526200531237477e-07  1.2817139022093372e-07  3.9123331666865739e-08  1.1220474811011893e-08  3.0179629045907873e-09  7.5988840384452761e-10  1.7878869932499251e-10  3.9239749788973911e-11  8.0200610819465100e-12  1.5240563851305098e-12  2.6889146122111361e-13  4.4010302215731075e-14  6.7022257702184411e-15  9.7812918137358899e-16  1.6688980949343686e-16  6.0786674532349135e-17  4.7995087821226417e-17  4.6573170591674781e-17  4.6427840119381690e-17  4.6413832453803078e-17  4.6412438899466422e-17  4.6412089628006506e-17  4.6411845566170697e-17  4.6411601786172068e-17  4.6411361120020658e-17  4.6411119768059148e-17  4.6410879165206215e-17  4.6410639624801410e-17  4.6410404324303903e-17  4.6410183888526215e-17  4.6410012232240138e-17  4.6409976194743557e-17  4.6410207460392322e-17  4.6410457899573403e-17  4.6407685343485140e-17  4.6388314898752946e-17  4.6329942821472760e-17  4.6471785146295813e-17  3.8031013593280322e-01  3.5549970413596266e-01  3.1776060934150957e-01  2.8180257737483533e-01  2.4301382105904212e-01  2.0503300515134665e-01  1.6858145537411595e-01  1.3507892118723583e-01  1.0530248534051781e-01  7.9787231155877714e-02  5.8680949627408004e-02  4.1841078378230062e-02  2.8885567058397576e-02  1.9282411178954267e-02  1.2429450820495574e-02  7.7258932462692413e-03  4.6241229047067128e-03  2.6610706977344425e-03  1.4701944965202930e-03  7.7859753599227965e-04  3.9462305946951653e-04  1.9110763532929995e-04  8.8283274607347219e-05  3.8837125492378941e-05  1.6241759358353421e-05  6.4457404611849836e-06  2.4232139484916630e-06  8.6140400336322386e-07  2.8902100207663500e-07  9.1362550982993942e-08  2.7160242192713909e-08  7.5795226057612442e-09  1.9820722174348057e-09  4.8485166054628175e-10  1.1075751643987521e-10  2.3588615701603123e-11  4.6764825844327337e-12  8.6177666799696038e-13  1.4743679467981262e-13  2.3417010968493805e-14  3.4786135504596563e-15  5.1375990074947348e-16  1.0635837768049962e-16  5.4684245329701175e-17  4.8635167973051296e-17  4.7983180597496561e-17  4.7917857333978930e-17  4.7911743852088467e-17  4.7910947846138848e-17  4.7910658060537785e-17  4.7910388191098344e-17  4.7910127486173506e-17  4.7909864760951238e-17  4.7909603060514987e-17  4.7909341204311802e-17  4.7909080022318882e-17  4.7908821211908589e-17  4.7908573454136814e-17  4.7908370842791765e-17  4.7908325632020749e-17  4.7908717031483178e-17  4.7909833852600252e-17  4.7909537169810720e-17  4.7888185853415304e-17  4.7736468867861164e-17  4.3392684840708901e-01  4.1589118617129672e-01  3.8321237861975166e-01  3.4920854341730889e-01  3.0936566223598383e-01  2.6843295685718038e-01  2.2702077623257452e-01  1.8721657407414655e-01  1.5026653055020175e-01  1.1727973951971409e-01  8.8885198867690599e-02  6.5336725523520628e-02  4.6518778945208693e-02  3.2038262388386481e-02  2.1314784315718250e-02  1.3679028875354505e-02  8.4559774302555221e-03  5.0276296431440281e-03  2.8707299398761429e-03  1.5717119722282295e-03  8.2377662186992038e-04  4.1265707072314894e-04  1.9723457522307730e-04  8.9793621552722769e-05  3.8870159347864390e-05  1.5970620548000248e-05  6.2169352196146678e-06  2.2886796446160679e-06  7.9532759941954049e-07  2.6040802637918454e-07  8.0187212924447103e-08  2.3179187097642767e-08  6.2783107257446166e-09  1.5906065167877956e-09  3.7627175711959386e-10  8.2971448078352920e-11  1.7027231129443761e-11  3.2470376945020873e-12  5.7458591693654812e-13  9.4255264804348581e-14  1.4346257192911197e-14  2.0559683220700314e-15  3.1014728295960990e-16  8.1349519686660436e-17  5.3698950888849031e-17  5.0622725226556605e-17  5.0306493729607903e-17  5.0276660188463355e-17  5.0273703951023514e-17  5.0273231217284865e-17  5.0272909466878323e-17  5.0272617738599725e-17  5.0272321472676195e-17  5.0272027579565368e-17  5.0271732858393078e-17  5.0271438163972362e-17  5.0271141950607806e-17  5.0270840332987794e-17  5.0270521774287848e-17  5.0270166194716303e-17  5.0269798939603188e-17  5.0269877448232247e-17  5.0273218121670213e-17  5.0293137931901853e-17  5.0384506217545413e-17  4.7557482661869194e-01  4.6276889852757153e-01  4.3704309129828245e-01  4.0732580585127681e-01  3.6994248808621094e-01  3.2924342852712513e-01  2.8572380077488740e-01  2.4193805718224703e-01  1.9948290914341826e-01  1.6002380235025290e-01  1.2471530520641939e-01  9.4316880198899222e-02  6.9120173434299340e-02  4.9021707078972077e-02  3.3599640104900533e-02  2.2224325124386327e-02  1.4165618390882206e-02  8.6877211393617867e-03  5.1188416223647906e-03  2.8930002679270774e-03  1.5657916731923959e-03  8.1023160890559773e-04  4.0016425242400992e-04  1.8830846241031283e-04  8.4282531536043455e-05  3.5814766700326971e-05  1.4422907111501006e-05  5.4942713809800934e-06  1.9761891102875426e-06  6.6988456041350395e-07  2.1360814935010590e-07  6.3955991929708631e-08  1.7947337353119787e-08  4.7119419479742313e-09  1.1553879383730788e-09  2.6415415672706747e-10  5.6220435126533889e-11  1.1121963048172454e-11  2.0422424115002421e-12  3.4764587941578201e-13  5.4826440043189815e-14  8.0347021493649076e-15  1.1270206145934424e-15  1.8588083994636258e-16  6.7616889484302812e-17  5.3928056722417421e-17  5.2466549848345482e-17  5.2323447169866377e-17  5.2310003210160067e-17  5.2308674181568814e-17  5.2308242318491877e-17  5.2307923939937822e-17  5.2307597815251240e-17  5.2307277531463529e-17  5.2306955479882257e-17  5.2306634426049348e-17  5.2306313916440004e-17  5.2305995980851469e-17  5.2305683339061395e-17  5.2305373368053759e-17  5.2305010468800374e-17  5.2304253270304702e-17  5.2301495092680294e-17  5.2290108417986977e-17  5.2244878394562020e-17  5.0704094351041773e-01  5.0243348437686075e-01  4.8808181714742366e-01  4.6611335626930706e-01  4.3469839790367448e-01  3.9710924042755591e-01  3.5400034113610024e-01  3.0806600691579061e-01  2.6118185099460145e-01  2.1554711719717065e-01  1.7290430902370546e-01  1.3465196863532250e-01  1.0166374205068140e-01  7.4316448434533736e-02  5.2523983526689966e-02  3.5839708076619889e-02  2.3575716139798170e-02  1.4928072264972522e-02  9.0846271859142350e-03  5.3049879877471130e-03  2.9677478705203621e-03  1.5878493431985231e-03  8.1112666176356280e-04  3.9491776783967162e-04  1.8293206094471958e-04  8.0473223442650816e-05  3.3557776247940537e-05  1.3240610343738507e-05  4.9338121924659438e-06  1.7330101738450857e-06  5.7272854532349314e-07  1.7775293856314234e-07  5.1713790805996439e-08  1.4077790657035567e-08  3.5796341082263588e-09  8.4875458273364873e-10  1.8735218161542275e-10  3.8441271192322655e-11  7.3209520694595941e-12  1.2923717675088420e-12  2.1123823328339706e-13  3.1965146928560407e-14  4.5082077806864710e-15  6.2814140643175467e-16  1.2263960576902604e-16  6.1991887365776996e-17  5.5289757741393762e-17  5.4610048707703342e-17  5.4545739494873618e-17  5.4540092639229706e-17  5.4539249015684594e-17  5.4538888170957093e-17  5.4538525937483965e-17  5.4538178141251776e-17  5.4537826205372485e-17  5.4537475969415530e-17  5.4537124742235750e-17  5.4536772995039094e-17  5.4536420708268002e-17  5.4536074960588755e-17  5.4535778195608348e-17  5.4535730448385604e-17  5.4536760612066914e-17  5.4542048179625119e-17  5.4563190003869509e-17  5.2349487140135242e-01  5.2789147682524296e-01  5.2684243702650435e-01  5.1500170027388747e-01  4.9295706325588617e-01  4.6210693173781375e-01  4.2314862907779033e-01  3.7841585726992993e-01  3.2988361758608137e-01  2.8007960455235859e-01  2.3125573579285133e-01  1.8546737437598623e-01  1.4427871716129670e-01  1.0872021041718218e-01  7.9245213646708959e-02  5.5791044367375246e-02  3.7882380845326656e-02  2.4770184864026660e-02  1.5572535297441022e-02  9.3978694047103517e-03  5.4352950955463995e-03  3.0075086057639263e-03  1.5893875035357086e-03  8.0080155639758509e-04  3.8398131365201797e-04  1.7489998730291131e-04  7.5536500524190023e-05  3.0874168061727074e-05  1.1920180670204364e-05  4.3390526340027347e-06  1.4863059082449381e-06  4.7819520634617750e-07  1.4423774934359194e-07  4.0713441116510553e-08  1.0735211246231895e-08  2.6396801520885717e-09  6.0428720291354811e-10  1.2858903855018007e-10  2.5397228859817618e-11  4.6492749428867658e-12  7.8785800088020044e-13  1.2347133516530561e-13  1.7910490345746880e-14  2.4393830861171206e-15  3.4974437001764760e-16  8.9915608244228712e-17  6.0184624472302681e-17  5.7061318071332430e-17  5.6758184069344358e-17  5.6731395325642947e-17  5.6728702593844593e-17  5.6728209445833018e-17  5.6727799262173182e-17  5.6727427153180416e-17  5.6727046224233006e-17  5.6726669501550725e-17  5.6726291513135033e-17  5.6725914126299688e-17  5.6725535680768043e-17  5.6725151223947213e-17  5.6724735830751044e-17  5.6724185800012796e-17  5.6723099505261603e-17  5.6719998810053306e-17  5.6709621820352580e-17  5.2346528883356780e-01  5.3739336168581597e-01  5.5118869669917203e-01  5.5184016470074171e-01  5.4238962453303119e-01  5.2189544781830999e-01  4.9102572561213104e-01  4.5134528531151308e-01  4.0467949504451767e-01  3.5356421944199079e-01  3.0057501441606876e-01  2.4832887406064919e-01  1.9910519901209583e-01  1.5471275700400605e-01  1.1634105921811443e-01  8.4541659790421483e-02  5.9276867477187564e-02  4.0041220071719445e-02  2.6016474865236814e-02  1.6233153205033414e-02  9.7106021606277251e-03  5.5595059938668145e-03  3.0409783393184446e-03  1.5863586894444563e-03  7.8778692964144342e-04  3.7173213896699974e-04  1.6635974778985094e-04  7.0475284804994670e-05  2.8207410227976679e-05  1.0646134320838649e-05  3.7817133184289273e-06  1.2618974953312253e-06  3.9480161839582883e-07  1.1559738160817252e-07  3.1618760152879583e-08  8.0650301646035315e-09  1.9151140845418126e-09  4.2267248862150343e-10  8.6568367314035241e-11  1.6429350209719047e-11  2.8852597410097342e-12  4.6828825435161971e-13  7.0192011740432986e-14  9.7432240499760942e-15  1.2903356393276775e-15  2.0301912800907416e-16  7.4455023530529025e-17  6.0505617390834651e-17  5.9113650433104750e-17  5.8987148017912237e-17  5.8975841587466088e-17  5.8974728235384812e-17  5.8974221261072061e-17  5.8973827066646079e-17  5.8973415446486115e-17  5.8973012998738411e-17  5.8972607636239395e-17  5.8972203663162140e-17  5.8971799928820066e-17  5.8971400104162581e-17  5.8971016970537713e-17  5.8970701578997075e-17  5.8970642934124930e-17  5.8971518457032551e-17  5.8975701376435085e-17  5.0630783648193423e-01  5.2920242164953024e-01  5.5774144948247650e-01  5.7189072266629815e-01  5.7711492068484627e-01  5.7001108798500211e-01  5.5108050086559213e-01  5.2072718173741650e-01  4.8028968290209273e-01  4.3189846466652704e-01  3.7812839989240721e-01  3.2190001247945882e-01  2.6608217456259808e-01  2.1326649127236039e-01  1.6550479594033893e-01  1.2417665822341220e-01  8.9939288939540632e-02  6.2785916759043325e-02  4.2177600143956086e-02  2.7220373303575969e-02  1.6848666837773377e-02  9.9849252593684715e-03  5.6553875666395326e-03  3.0558478262974090e-03  1.5723543756900544e-03  7.6895664987229411e-04  3.5674431939736314e-04  1.5670303187418375e-04  6.5045503710625590e-05  2.5464054549484581e-05  9.3833741113808917e-06  3.2483765465968744e-06  1.0544159954499474e-06  3.2030972752326334e-07  9.0893047438707312e-08  2.4049322211780805e-08  5.9226831087156963e-09  1.3552989946378440e-09  2.8769875857637895e-10  5.6564322537176379e-11  1.0284803734835445e-11  1.7269726551050841e-12  2.6747242961876592e-13  3.8199993180045352e-14  5.0649262184306913e-15  6.6446559716365232e-16  1.2796821757816368e-16  6.8004528411619464e-17  6.1857473054696095e-17  6.1282747364245450e-17  6.1232325553378023e-17  6.1228245523177859e-17  6.1227443754257115e-17  6.1227025910216818e-17  6.1226580471925225e-17  6.1226155034578178e-17  6.1225723425356169e-17  6.1225294605361739e-17  6.1224864386591718e-17  6.1224432386481217e-17  6.1223991532649881e-17  6.1223517779092647e-17  6.1222923761495642e-17  6.1221902389808965e-17  6.1219389365607426e-17  4.7327255300318710e-01  5.0372677272035415e-01  5.4551452613109386e-01  5.7295507596724005e-01  5.9370668135046101e-01  6.0203532341572186e-01  5.9818177695096708e-01  5.8115921668454174e-01  5.5151955801524299e-01  5.1056636639412090e-01  4.6045380936403091e-01  4.0400513341417493e-01  3.4438425536674222e-01  2.8480324307552302e-01  2.2816819413600922e-01  1.7681800302919121e-01  1.3233978958675394e-01  9.5512932186764238e-02  6.6364662517054113e-02  4.4319147420224712e-02  2.8397683692526189e-02  1.7428095545796631e-02  1.0226151621377841e-02  5.7262719646073842e-03  3.0543210642001656e-03  1.5488555759739096e-03  7.4527759246002237e-04  3.3961171354486737e-04  1.4626585553118653e-04  5.9419877527019306e-05  2.2723718802661211e-05  8.1642638866689777e-06  2.7502979793276299e-06  8.6698198968070587e-07  2.5524740734345193e-07  7.0048889203707045e-08  1.7886090058823114e-08  4.2414170020106514e-09  9.3243800073542986e-10  1.8971551570329082e-10  3.5665740446482821e-11  6.1857587950048504e-12  9.8833479981369275e-13  1.4531223303100270e-13  1.9675642962169090e-14  2.4934791431710329e-15  3.3943315406254260e-16  9.2201999236242236e-17  6.6230860632122192e-17  6.3742051779480372e-17  6.3522002545137885e-17  6.3504541247214438e-17  6.3502621234711499e-17  6.3502146032832674e-17  6.3501657360198915e-17  6.3501212582990805e-17  6.3500755023650169e-17  6.3500303580357463e-17  6.3499850570595307e-17  6.3499399519720927e-17  6.3498952315141023e-17  6.3498520579146391e-17  6.3498143890268982e-17  6.3497960497727616e-17  6.3498445644711975e-17  4.2709323152590506e-01  4.6295572032673232e-01  5.1513584630768960e-01  5.5423968048552796e-01  5.8974316735818155e-01  6.1401970599691791e-01  6.2707188819027460e-01  6.2648821707354552e-01  6.1182777971937385e-01  5.8320946157198950e-01  5.4192160985436566e-01  4.9019489284604550e-01  4.3103259822368223e-01  3.6790867732422050e-01  3.0438004916574651e-01  2.4371550583752544e-01  1.8856664606770637e-01  1.4075639138465318e-01  1.0119973703358666e-01  6.9962614450345476e-02  4.6427491833414804e-02  2.9521240221030219e-02  1.7953631672777824e-02  1.0423605378361940e-02  5.7663826700040562e-03  3.0336427389872828e-03  1.5147525983216367e-03  7.1641239837420476e-04  3.2029138189707597e-04  1.3508145140144956e-04  5.3630888538071821e-05  2.0003174048137229e-05  6.9942524951143810e-06  2.2879007825674911e-06  6.9869326348197350e-07  1.9879202865947946e-07  5.2589453150801515e-08  1.2910119546452638e-08  2.9353815325056734e-09  6.1702705554229206e-10  1.1969848468170820e-10  2.1394358926730712e-11  3.5177489600602456e-12  5.3136146590311223e-13  7.3678118747179646e-14  9.4106184359193836e-15  1.1514136224235821e-15  1.8111206111738097e-16  7.6969863301899232e-17  6.6779131706272001e-17  6.5865697755509948e-17  6.5792049107590962e-17  6.5785700996952739e-17  6.5784983972006027e-17  6.5784425766803699e-17  6.5783967443614275e-17  6.5783483467581505e-17  6.5783011791324014e-17  6.5782536264913815e-17  6.5782062093209753e-17  6.5781585341881893e-17  6.5781101627035680e-17  6.5780592591637088e-17  6.5779996492467857e-17  6.5779101755389478e-17  3.7170691915839454e-01  4.1040184809966040e-01  4.6917704611823929e-01  5.1713536585050335e-01  5.6507493399997821e-01  6.0414822621514719e-01  6.3424238500462560e-01  6.5170851089704740e-01  6.5508276269236232e-01  6.4310851351845866e-01  6.1584749608955780e-01  5.7444394535288967e-01  5.2118948712972912e-01  4.5928951361078835e-01  3.9252949772051760e-01  3.2485475525180835e-01  2.5992834056647579e-01  2.0075373450838743e-01  1.4941585582083897e-01  1.0698189526423456e-01  7.3559872714137386e-02  4.8484704970254311e-02  3.0577157536836548e-02  1.8415926455737679e-02  1.0571832735636005e-02  5.7730433853352995e-03  2.9927945924095641e-03  1.4698371039232703e-03  6.8244549954561858e-04  2.9891238958267810e-04  1.2324045195956357e-04  4.7724315021374667e-05  1.7319568499784532e-05  5.8772455106212940e-06  1.8607107370713317e-06  5.4838904736232034e-07  1.5012613311650921e-07  3.8094236052823072e-08  8.9414772161183872e-09  1.9375800013177387e-09  3.8691162970750902e-10  7.1075569826504324e-11  1.1992135224580881e-11  1.8557410238999210e-12  2.6307271120387322e-13  3.4168649114847683e-14  4.1083529178778948e-15  5.0513088157745520e-16  1.1118664014724087e-16  7.1956705732485840e-17  6.8391588437554306e-17  6.8098976461942174e-17  6.8075669575816085e-17  6.8073923451470220e-17  6.8073217488269702e-17  6.8072753599000103e-17  6.8072240840057749e-17  6.8071752607859344e-17  6.8071256979162239e-17  6.8070765488944839e-17  6.8070273866172935e-17  6.8069786038288534e-17  6.8069309266529842e-17  6.8068871312940360e-17  6.8068565907832484e-17  3.1165659575971294e-01  3.5053454886358465e-01  4.1168956475412172e-01  4.6488588813338166e-01  5.2167401054552132e-01  5.7278546701426303e-01  6.1819462354791788e-01  6.5341259633632265e-01  6.7612819480010422e-01  6.8374857995775740e-01  6.7493240682819844e-01  6.4936250725398414e-01  6.0808403925837262e-01  5.5341245404772421e-01  4.8875284992907025e-01  4.1822752287587700e-01  3.4620030307081340e-01  2.7677257272120442e-01  2.1333770126898474e-01  1.5827354580197076e-01  1.1281595517207969e-01  7.7118342758366210e-02  5.0460456233963086e-02  3.1543526905352941e-02  1.8800606769963028e-02  1.0662286417420709e-02  5.7416499168197353e-03  2.9295292672396984e-03  1.4131088056463031e-03  6.4296373988702760e-04  2.7531022283515844e-04  1.1067588906056163e-04  4.1670752881478921e-05  1.4658879239778341e-05  4.8062393345976313e-06  1.4652166179339631e-06  4.1435420541381287e-07  1.0845112997322708e-07  2.6215361078454649e-08  5.8406456717853205e-09  1.1971147185448302e-09  2.2533760947608923e-10  3.8893329743741822e-11  6.1468101750978527e-12  8.8844036339595828e-13  1.1735283822260555e-13  1.4199618077223348e-14  1.6223610547228191e-15  2.2564399941826515e-16  8.4516814092150395e-17  7.1532814541988837e-17  7.0451503541674880e-17  7.0367267133596428e-17  7.0361572247083797e-17  7.0360480557961551e-17  7.0360019023006919e-17  7.0359471228110855e-17  7.0358971192485395e-17  7.0358456351964789e-17  7.0357949022204613e-17  7.0357439261166586e-17  7.0356929217517056e-17  7.0356413745855710e-17  7.0355881041364718e-17  7.0355289287380414e-17  2.5146061434450095e-01  2.8815187978209617e-01  3.4764318062247718e-01  4.0218761663563962e-01  4.6349510723086973e-01  5.2266824686485291e-01  5.7999454506105019e-01  6.3068014298885344e-01  6.7192292141362564e-01  7.0008329085836063e-01  7.1249802041647514e-01  7.0724679991576911e-01  6.8374755589214786e-01  6.4284749314326550e-01  5.8687756243996547e-01  5.1943833374613513e-01  4.4500840465583175e-01  3.6840916927950285e-01  2.9422483167453617e-01  2.2628272658014259e-01  1.6728616402478610e-01  1.1865740834113314e-01  8.0597381691168299e-02  5.2321185031703459e-02  3.2394903040653747e-02  1.9089763897053517e-02  1.0683142938338407e-02  5.6648273697123752e-03  2.8394908715999958e-03  1.3421447854209598e-03  5.9671438812456280e-04  2.4889446786395460e-04  9.7140204703901137e-05  3.5380570960491990e-05  1.1994141792401431e-05  3.7748068419374016e-06  1.1001867512191282e-06  2.9625464528068992e-07  7.3542549048323366e-08  1.6796101087698237e-08  3.5226827841404187e-09  6.7734642824750079e-10  1.1922664166803494e-10  1.9186111548931092e-11  2.8193568885108798e-12  3.7798212024405917e-13  4.6240078681241634e-14  5.2089736805418725e-15  5.9262784034537200e-16  1.2053824328465132e