<?xml version="1.0"?>
<VTKFile type="UnstructuredGrid"  version="0.1"  >
<UnstructuredGrid>
<Piece  NumberOfPoints="4225" NumberOfCells="8192">
<Points>
<DataArray  type="Float64"  NumberOfComponents="3"  format="ascii">0 0 0  0.015625 0 0  0.03125 0 0  0.046875 0 0  0.0625 0 0  0.078125 0 0  0.09375 0 0  0.109375 0 0  0.125 0 0  0.140625 0 0  0.15625 0 0  0.171875 0 0  0.1875 0 0  0.203125 0 0  0.21875 0 0  0.234375 0 0  0.25 0 0  0.265625 0 0  0.28125 0 0  0.296875 0 0  0.3125 0 0  0.328125 0 0  0.34375 0 0  0.359375 0 0  0.375 0 0  0.390625 0 0  0.40625 0 0  0.421875 0 0  0.4375 0 0  0.453125 0 0  0.46875 0 0  0.484375 0 0  0.5 0 0  0.515625 0 0  0.53125 0 0  0.546875 0 0  0.5625 0 0  0.578125 0 0  0.59375 0 0  0.609375 0 0  0.625 0 0  0.640625 0 0  0.65625 0 0  0.671875 0 0  0.6875 0 0  0.703125 0 0  0.71875 0 0  0.734375 0 0  0.75 0 0  0.765625 0 0  0.78125 0 0  0.796875 0 0  0.8125 0 0  0.828125 0 0  0.84375 0 0  0.859375 0 0  0.875 0 0  0.890625 0 0  0.90625 0 0  0.921875 0 0  0.9375 0 0  0.953125 0 0  0.96875 0 0  0.984375 0 0  1 0 0  0 0.015625 0  0.015625 0.015625 0  0.03125 0.015625 0  0.046875 0.015625 0  0.0625 0.015625 0  0.078125 0.015625 0  0.09375 0.015625 0  0.109375 0.015625 0  0.125 0.015625 0  0.140625 0.015625 0  0.15625 0.015625 0  0.171875 0.015625 0  0.1875 0.015625 0  0.203125 0.015625 0  0.21875 0.015625 0  0.234375 0.015625 0  0.25 0.015625 0  0.265625 0.015625 0  0.28125 0.015625 0  0.296875 0.015625 0  0.3125 0.015625 0  0.328125 0.015625 0  0.34375 0.015625 0  0.359375 0.015625 0  0.375 0.015625 0  0.390625 0.015625 0  0.40625 0.015625 0  0.421875 0.015625 0  0.4375 0.015625 0  0.453125 0.015625 0  0.46875 0.015625 0  0.484375 0.015625 0  0.5 0.015625 0  0.515625 0.015625 0  0.53125 0.015625 0  0.546875 0.015625 0  0.5625 0.015625 0  0.578125 0.015625 0  0.59375 0.015625 0  0.609375 0.015625 0  0.625 0.015625 0  0.640625 0.015625 0  0.65625 0.015625 0  0.671875 0.015625 0  0.6875 0.015625 0  0.703125 0.015625 0  0.71875 0.015625 0  0.734375 0.015625 0  0.75 0.015625 0  0.765625 0.015625 0  0.78125 0.015625 0  0.796875 0.015625 0  0.8125 0.015625 0  0.828125 0.015625 0  0.84375 0.015625 0  0.859375 0.015625 0  0.875 0.015625 0  0.890625 0.015625 0  0.90625 0.015625 0  0.921875 0.015625 0  0.9375 0.015625 0  0.953125 0.015625 0  0.96875 0.015625 0  0.984375 0.015625 0  1 0.015625 0  0 0.03125 0  0.015625 0.03125 0  0.03125 0.03125 0  0.046875 0.03125 0  0.0625 0.03125 0  0.078125 0.03125 0  0.09375 0.03125 0  0.109375 0.03125 0  0.125 0.03125 0  0.140625 0.03125 0  0.15625 0.03125 0  0.171875 0.03125 0  0.1875 0.03125 0  0.203125 0.03125 0  0.21875 0.03125 0  0.234375 0.03125 0  0.25 0.03125 0  0.265625 0.03125 0  0.28125 0.03125 0  0.296875 0.03125 0  0.3125 0.03125 0  0.328125 0.03125 0  0.34375 0.03125 0  0.359375 0.03125 0  0.375 0.03125 0  0.390625 0.03125 0  0.40625 0.03125 0  0.421875 0.03125 0  0.4375 0.03125 0  0.453125 0.03125 0  0.46875 0.03125 0  0.484375 0.03125 0  0.5 0.03125 0  0.515625 0.03125 0  0.53125 0.03125 0  0.546875 0.03125 0  0.5625 0.03125 0  0.578125 0.03125 0  0.59375 0.03125 0  0.609375 0.03125 0  0.625 0.03125 0  0.640625 0.03125 0  0.65625 0.03125 0  0.671875 0.03125 0  0.6875 0.03125 0  0.703125 0.03125 0  0.71875 0.03125 0  0.734375 0.03125 0  0.75 0.03125 0  0.765625 0.03125 0  0.78125 0.03125 0  0.796875 0.03125 0  0.8125 0.03125 0  0.828125 0.03125 0  0.84375 0.03125 0  0.859375 0.03125 0  0.875 0.03125 0  0.890625 0.03125 0  0.90625 0.03125 0  0.921875 0.03125 0  0.9375 0.03125 0  0.953125 0.03125 0  0.96875 0.03125 0  0.984375 0.03125 0  1 0.03125 0  0 0.046875 0  0.015625 0.046875 0  0.03125 0.046875 0  0.046875 0.046875 0  0.0625 0.046875 0  0.078125 0.046875 0  0.09375 0.046875 0  0.109375 0.046875 0  0.125 0.046875 0  0.140625 0.046875 0  0.15625 0.046875 0  0.171875 0.046875 0  0.1875 0.046875 0  0.203125 0.046875 0  0.21875 0.046875 0  0.234375 0.046875 0  0.25 0.046875 0  0.265625 0.046875 0  0.28125 0.046875 0  0.296875 0.046875 0  0.3125 0.046875 0  0.328125 0.046875 0  0.34375 0.046875 0  0.359375 0.046875 0  0.375 0.046875 0  0.390625 0.046875 0  0.40625 0.046875 0  0.421875 0.046875 0  0.4375 0.046875 0  0.453125 0.046875 0  0.46875 0.046875 0  0.484375 0.046875 0  0.5 0.046875 0  0.515625 0.046875 0  0.53125 0.046875 0  0.546875 0.046875 0  0.5625 0.046875 0  0.578125 0.046875 0  0.59375 0.046875 0  0.609375 0.046875 0  0.625 0.046875 0  0.640625 0.046875 0  0.65625 0.046875 0  0.671875 0.046875 0  0.6875 0.046875 0  0.703125 0.046875 0  0.71875 0.046875 0  0.734375 0.046875 0  0.75 0.046875 0  0.765625 0.046875 0  0.78125 0.046875 0  0.796875 0.046875 0  0.8125 0.046875 0  0.828125 0.046875 0  0.84375 0.046875 0  0.859375 0.046875 0  0.875 0.046875 0  0.890625 0.046875 0  0.90625 0.046875 0  0.921875 0.046875 0  0.9375 0.046875 0  0.953125 0.046875 0  0.96875 0.046875 0  0.984375 0.046875 0  1 0.046875 0  0 0.0625 0  0.015625 0.0625 0  0.03125 0.0625 0  0.046875 0.0625 0  0.0625 0.0625 0  0.078125 0.0625 0  0.09375 0.0625 0  0.109375 0.0625 0  0.125 0.0625 0  0.140625 0.0625 0  0.15625 0.0625 0  0.171875 0.0625 0  0.1875 0.0625 0  0.203125 0.0625 0  0.21875 0.0625 0  0.234375 0.0625 0  0.25 0.0625 0  0.265625 0.0625 0  0.28125 0.0625 0  0.296875 0.0625 0  0.3125 0.0625 0  0.328125 0.0625 0  0.34375 0.0625 0  0.359375 0.0625 0  0.375 0.0625 0  0.390625 0.0625 0  0.40625 0.0625 0  0.421875 0.0625 0  0.4375 0.0625 0  0.453125 0.0625 0  0.46875 0.0625 0  0.484375 0.0625 0  0.5 0.0625 0  0.515625 0.0625 0  0.53125 0.0625 0  0.546875 0.0625 0  0.5625 0.0625 0  0.578125 0.0625 0  0.59375 0.0625 0  0.609375 0.0625 0  0.625 0.0625 0  0.640625 0.0625 0  0.65625 0.0625 0  0.671875 0.0625 0  0.6875 0.0625 0  0.703125 0.0625 0  0.71875 0.0625 0  0.734375 0.0625 0  0.75 0.0625 0  0.765625 0.0625 0  0.78125 0.0625 0  0.796875 0.0625 0  0.8125 0.0625 0  0.828125 0.0625 0  0.84375 0.0625 0  0.859375 0.0625 0  0.875 0.0625 0  0.890625 0.0625 0  0.90625 0.0625 0  0.921875 0.0625 0  0.9375 0.0625 0  0.953125 0.0625 0  0.96875 0.0625 0  0.984375 0.0625 0  1 0.0625 0  0 0.078125 0  0.015625 0.078125 0  0.03125 0.078125 0  0.046875 0.078125 0  0.0625 0.078125 0  0.078125 0.078125 0  0.09375 0.078125 0  0.109375 0.078125 0  0.125 0.078125 0  0.140625 0.078125 0  0.15625 0.078125 0  0.171875 0.078125 0  0.1875 0.078125 0  0.203125 0.078125 0  0.21875 0.078125 0  0.234375 0.078125 0  0.25 0.078125 0  0.265625 0.078125 0  0.28125 0.078125 0  0.296875 0.078125 0  0.3125 0.078125 0  0.328125 0.078125 0  0.34375 0.078125 0  0.359375 0.078125 0  0.375 0.078125 0  0.390625 0.078125 0  0.40625 0.078125 0  0.421875 0.078125 0  0.4375 0.078125 0  0.453125 0.078125 0  0.46875 0.078125 0  0.484375 0.078125 0  0.5 0.078125 0  0.515625 0.078125 0  0.53125 0.078125 0  0.546875 0.078125 0  0.5625 0.078125 0  0.578125 0.078125 0  0.59375 0.078125 0  0.609375 0.078125 0  0.625 0.078125 0  0.640625 0.078125 0  0.65625 0.078125 0  0.671875 0.078125 0  0.6875 0.078125 0  0.703125 0.078125 0  0.71875 0.078125 0  0.734375 0.078125 0  0.75 0.078125 0  0.765625 0.078125 0  0.78125 0.078125 0  0.796875 0.078125 0  0.8125 0.078125 0  0.828125 0.078125 0  0.84375 0.078125 0  0.859375 0.078125 0  0.875 0.078125 0  0.890625 0.078125 0  0.90625 0.078125 0  0.921875 0.078125 0  0.9375 0.078125 0  0.953125 0.078125 0  0.96875 0.078125 0  0.984375 0.078125 0  1 0.078125 0  0 0.09375 0  0.015625 0.09375 0  0.03125 0.09375 0  0.046875 0.09375 0  0.0625 0.09375 0  0.078125 0.09375 0  0.09375 0.09375 0  0.109375 0.09375 0  0.125 0.09375 0  0.140625 0.09375 0  0.15625 0.09375 0  0.171875 0.09375 0  0.1875 0.09375 0  0.203125 0.09375 0  0.21875 0.09375 0  0.234375 0.09375 0  0.25 0.09375 0  0.265625 0.09375 0  0.28125 0.09375 0  0.296875 0.09375 0  0.3125 0.09375 0  0.328125 0.09375 0  0.34375 0.09375 0  0.359375 0.09375 0  0.375 0.09375 0  0.390625 0.09375 0  0.40625 0.09375 0  0.421875 0.09375 0  0.4375 0.09375 0  0.453125 0.09375 0  0.46875 0.09375 0  0.484375 0.09375 0  0.5 0.09375 0  0.515625 0.09375 0  0.53125 0.09375 0  0.546875 0.09375 0  0.5625 0.09375 0  0.578125 0.09375 0  0.59375 0.09375 0  0.609375 0.09375 0  0.625 0.09375 0  0.640625 0.09375 0  0.65625 0.09375 0  0.671875 0.09375 0  0.6875 0.09375 0  0.703125 0.09375 0  0.71875 0.09375 0  0.734375 0.09375 0  0.75 0.09375 0  0.765625 0.09375 0  0.78125 0.09375 0  0.796875 0.09375 0  0.8125 0.09375 0  0.828125 0.09375 0  0.84375 0.09375 0  0.859375 0.09375 0  0.875 0.09375 0  0.890625 0.09375 0  0.90625 0.09375 0  0.921875 0.09375 0  0.9375 0.09375 0  0.953125 0.09375 0  0.96875 0.09375 0  0.984375 0.09375 0  1 0.09375 0  0 0.109375 0  0.015625 0.109375 0  0.03125 0.109375 0  0.046875 0.109375 0  0.0625 0.109375 0  0.078125 0.109375 0  0.09375 0.109375 0  0.109375 0.109375 0  0.125 0.109375 0  0.140625 0.109375 0  0.15625 0.109375 0  0.171875 0.109375 0  0.1875 0.109375 0  0.203125 0.109375 0  0.21875 0.109375 0  0.234375 0.109375 0  0.25 0.109375 0  0.265625 0.109375 0  0.28125 0.109375 0  0.296875 0.109375 0  0.3125 0.109375 0  0.328125 0.109375 0  0.34375 0.109375 0  0.359375 0.109375 0  0.375 0.109375 0  0.390625 0.109375 0  0.40625 0.109375 0  0.421875 0.109375 0  0.4375 0.109375 0  0.453125 0.109375 0  0.46875 0.109375 0  0.484375 0.109375 0  0.5 0.109375 0  0.515625 0.109375 0  0.53125 0.109375 0  0.546875 0.109375 0  0.5625 0.109375 0  0.578125 0.109375 0  0.59375 0.109375 0  0.609375 0.109375 0  0.625 0.109375 0  0.640625 0.109375 0  0.65625 0.109375 0  0.671875 0.109375 0  0.6875 0.109375 0  0.703125 0.109375 0  0.71875 0.109375 0  0.734375 0.109375 0  0.75 0.109375 0  0.765625 0.109375 0  0.78125 0.109375 0  0.796875 0.109375 0  0.8125 0.109375 0  0.828125 0.109375 0  0.84375 0.109375 0  0.859375 0.109375 0  0.875 0.109375 0  0.890625 0.109375 0  0.90625 0.109375 0  0.921875 0.109375 0  0.9375 0.109375 0  0.953125 0.109375 0  0.96875 0.109375 0  0.984375 0.109375 0  1 0.109375 0  0 0.125 0  0.015625 0.125 0  0.03125 0.125 0  0.046875 0.125 0  0.0625 0.125 0  0.078125 0.125 0  0.09375 0.125 0  0.109375 0.125 0  0.125 0.12
[...]
<PointData  Scalars="f_14"> 
<DataArray  type="Float64"  Name="f_14"  format="ascii">2.4697122191298723e-01  2.8378533474110196e-01  3.3952969146853329e-01  3.9202793590301088e-01  4.4267378203049895e-01  4.8655039904464864e-01  5.2011444463834899e-01  5.3984103463517796e-01  5.4324775717728746e-01  5.2923211723409014e-01  4.9839364398609126e-01  4.5304381151179801e-01  3.9693107131461586e-01  3.3470594845401341e-01  2.7123818757323875e-01  2.1093127987641805e-01  1.5717897799051131e-01  1.1206437963279448e-01  7.6332853192472003e-02  4.9598802924317113e-02  3.0696219505470568e-02  1.8066890880449455e-02  1.0096942710078658e-02  5.3495782506708970e-03  2.6827478556882426e-03  1.2713669429772392e-03  5.6844190589822150e-04  2.3939386000212243e-04  9.4805801399536072e-05  3.5247825998738710e-05  1.2282454253834214e-05  4.0047464639928180e-06  1.2197986482441417e-06  3.4651204994052592e-07  9.1658004400146941e-08  2.2540502455321164e-08  5.1455915067031564e-09  1.0887911982238369e-09  2.1324344065650957e-10  3.8604788132622287e-11  6.4518734788380486e-12  9.9425028691734122e-13  1.4114065462466744e-13  1.8461172100353073e-14  2.2473166509252516e-15  2.7959624426766722e-16  6.0491347368959371e-17  3.8123038491577665e-17  3.6030785755651664e-17  3.5851607385655961e-17  3.5837587011234273e-17  3.5836606904819480e-17  3.5836568181172186e-17  3.5836591653099021e-17  3.5836618938111604e-17  3.5836646480842401e-17  3.5836674070236064e-17  3.5836701616065495e-17  3.5836728758131576e-17  3.5836755537052115e-17  3.5836794558888547e-17  3.5836927733038434e-17  3.5837079221016930e-17  3.5831559246556710e-17  3.5836782617577179e-17  2.1867742657398959e-01  2.5385418533292625e-01  3.1160962346731302e-01  3.6555858503356281e-01  4.2044468735916768e-01  4.7062237761017650e-01  5.1255735058591700e-01  5.4215024088873109e-01  5.5613396316132280e-01  5.5241008305885075e-01  5.3054445642239023e-01  4.9194474094586638e-01  4.3974892668271276e-01  3.7839689908925517e-01  3.1297158186470442e-01  2.4844802194826421e-01  1.8901470894405176e-01  1.3760603725083795e-01  9.5721381194424623e-02  6.3526115319299095e-02  4.0160924686009819e-02  2.4148646979643005e-02  1.3789306490248157e-02  7.4656665077459227e-03  3.8263151950257328e-03  1.8534561848672141e-03  8.4717197558283465e-04  3.6478986324473456e-04  1.4773644319963976e-04  5.6182026092522469e-05  2.0029258875284535e-05  6.6832420324425949e-06  2.0838603356467900e-06  6.0621098252330653e-07  1.6427868612196095e-07  4.1408229182791390e-08  9.6940842730709261e-09  2.1049056975119650e-09  4.2333367996415023e-10  7.8760131596529531e-11  1.3538978701913118e-11  2.1480376297086013e-12  3.1423704251672015e-13  4.2370190903919566e-14  5.2853594970241757e-15  6.3453273958573884e-16  9.8676497528171059e-17  4.1991006474047470e-17  3.6488641562596365e-17  3.5998820157260792e-17  3.5958872111611614e-17  3.5955911392839031e-17  3.5955735611138697e-17  3.5955751904898879e-17  3.5955780392194702e-17  3.5955809636404825e-17  3.5955838964134321e-17  3.5955868331529579e-17  3.5955897609221141e-17  3.5955926072305053e-17  3.5955953002175988e-17  3.5955999067809276e-17  3.5956233796057579e-17  3.5956747228559991e-17  3.5943502427470066e-17  1.8132859365300386e-01  2.1256452247212940e-01  2.6868504027266316e-01  3.2312469092364288e-01  3.8236487757791060e-01  4.4009961825675870e-01  4.9304217028305330e-01  5.3649240012420041e-01  5.6620308030636990e-01  5.7866776377061713e-01  5.7184442965830251e-01  5.4558305311804012e-01  5.0179392371899612e-01  4.4424223574653560e-01  3.7800092100487337e-01  3.0866815378903822e-01  2.4152475201845447e-01  1.8081877573099359e-01  1.2932244675966742e-01  8.8223356487560189e-02  5.7318766170444270e-02  3.5410410419256591e-02  2.0768053862176485e-02  1.1544990646106220e-02  6.0732195040694281e-03  3.0182790062799067e-03  1.4148014772858335e-03  6.2445649349009450e-04  2.5908932766975911e-04  1.0087981058669157e-04  3.6798610277142815e-05  1.2554406770495033e-05  3.9991344496494044e-06  1.1874426393898861e-06  3.2810621495821954e-07  8.4228381071251482e-08  2.0055897005578941e-08  4.4225697363638460e-09  9.0173346702646354e-10  1.6974111050459194e-10  2.9454191302266195e-11  4.7045082595342343e-12  6.9065310744363159e-13  9.3078109423568172e-14  1.1522273259139309e-14  1.3333957928758933e-15  1.6993639296761189e-16  4.8703447148705494e-17  3.7197067231979580e-17  3.6204485736814237e-17  3.6126891143638377e-17  3.6121437508306985e-17  3.6121120250592357e-17  3.6121131908932015e-17  3.6121162471969519e-17  3.6121194055618171e-17  3.6121225728440979e-17  3.6121257452743088e-17  3.6121289291913174e-17  3.6121321323002857e-17  3.6121351969754464e-17  3.6121367566600891e-17  3.6121329182455413e-17  3.6121650622350285e-17  3.6130992135136154e-17  1.4866154981165747e-01  1.7803241459358726e-01  2.3125748926251383e-01  2.8441817673391939e-01  3.4468705264455973e-01  4.0608400719012250e-01  4.6595375689013563e-01  5.1943556483369913e-01  5.6179586123560887e-01  5.8853682371920391e-01  5.9626975417049810e-01  5.8332328499882469e-01  5.5017686619826356e-01  4.9951949611392149e-01  4.3590424774332687e-01  3.6504707725635593e-01  2.9292349803942436e-01  2.2487033385655561e-01  1.6489341430691279e-01  1.1531420399545272e-01  7.6785572643737865e-02  4.8606687265695440e-02  2.9202980684023369e-02  1.6624981024551688e-02  8.9532165062399527e-03  4.5536084987073799e-03  2.1835348622391147e-03  9.8550138294871718e-04  4.1793536144903469e-04  1.6625594981848043e-04  6.1933369835679271e-05  2.1568487200360975e-05  7.0103290220967533e-06  2.1230949014068990e-06  5.9816097944428292e-07  1.5653511977827399e-07  3.7993188703866355e-08  8.5406232170387022e-09  1.7758028626280948e-09  3.4111691813136047e-10  6.0472428516675278e-11  9.8848933302777861e-12  1.4888545864427698e-12  2.0656001039056301e-13  2.6416051090036501e-14  3.1393618173432232e-15  3.7256603991392431e-16  6.9857979325527694e-17  3.9346437839943196e-17  3.6509387096077141e-17  3.6265650948807984e-17  3.6246291116254100e-17  3.6244892632202566e-17  3.6244827474875974e-17  3.6244854388232525e-17  3.6244887289883132e-17  3.6244920598649488e-17  3.6244953958954925e-17  3.6244987329833730e-17  3.6245020794381225e-17  3.6245055416348559e-17  3.6245096300943065e-17  3.6245141411789717e-17  3.6244856105159264e-17  3.6239284865579018e-17  1.1826255787976678e-01  1.4396645235928415e-01  1.9180649933939295e-01  2.4173316059142846e-01  3.0082703591780419e-01  3.6395032980161768e-01  4.2907164120042163e-01  4.9150014782564377e-01  5.4632531040592525e-01  5.8827054849856431e-01  6.1265615754273128e-01  6.1614139903827392e-01  5.9742741481457684e-01  5.5763500961221002e-01  5.0025939213774495e-01  4.3066585135293706e-01  3.5522486654636481e-01  2.8028421239078344e-01  2.1122077321653726e-01  1.5178278132205342e-01  1.0383780751332949e-01  6.7519375504237783e-02  4.1660767207929876e-02  2.4351813693391219e-02  1.3462115328728335e-02  7.0265157130291163e-03  3.4567910795604115e-03  1.6001857807470517e-03  6.9580448682310251e-04  2.8371246297477260e-04  1.0829299645665182e-04  3.8628995631082519e-05  1.2855361731346828e-05  3.9846367337650131e-06  1.1484543955691061e-06  3.0729797839525932e-07  7.6215175752096420e-08  1.7493972942382422e-08  3.7105894435000478e-09  7.2619850578709688e-10  1.3094120471583741e-10  2.1719144775498824e-11  3.3087016838525031e-12  4.6213849314231894e-13  5.9083885068311316e-14  6.9219038391282606e-15  7.6665146604640326e-16  1.0648796194859375e-16  4.2425081364980339e-17  3.6838671815562600e-17  3.6405834322692711e-17  3.6376667608414104e-17  3.6375060363412954e-17  3.6375027134919001e-17  3.6375061082879017e-17  3.6375096189472084e-17  3.6375131199668210e-17  3.6375166234861495e-17  3.6375201302208534e-17  3.6375236324674282e-17  3.6375270815293033e-17  3.6375303424249232e-17  3.6375343839325745e-17  3.6375606868815794e-17  3.6378861619046185e-17  9.1817342580215205e-02  1.1394003175298802e-01  1.5604481917729812e-01  2.0169369960272940e-01  2.5756433584597527e-01  3.1972779858116068e-01  3.8691402917557249e-01  4.5505195068331944e-01  5.1948532231891853e-01  5.7461849882197502e-01  6.1486483312702755e-01  6.3542325190501570e-01  6.3318292036663126e-01  6.0740610148551566e-01  5.6003624028950860e-01  4.9549937382769510e-01  4.2001182727735481e-01  3.4054133974959572e-01  2.6367102373631701e-01  1.9463833560673699e-01  1.3675743942814561e-01  9.1307567053753341e-02  5.7831645569582313e-02  3.4688864263303948e-02  1.9671452171952191e-02  1.0528207728316936e-02  5.3087064919529799e-03  2.5175592151115049e-03  1.1208960072870958e-03  4.6771676877324549e-04  1.8258772945789690e-04  6.6569400551113971e-05  2.2627826529627609e-05  7.1587565747554613e-06  2.1044313541905356e-06  5.7389020767442613e-07  1.4495647237371065e-07  3.3861649204932713e-08  7.3050547150067090e-09  1.4534919464797343e-09  2.6641807472085353e-10  4.4941117192957708e-11  6.9715667602291094e-12  9.9417660102963465e-13  1.3036968144007246e-13  1.5759185109182147e-14  1.7851389380563034e-15  2.1639888435951568e-16  5.3700526799899443e-17  3.8029183296683698e-17  3.6616921306464535e-17  3.6496785672294930e-17  3.6487075078901737e-17  3.6486351972920435e-17  3.6486331103972957e-17  3.6486363171317898e-17  3.6486399133197151e-17  3.6486435410528642e-17  3.6486471746105456e-17  3.6486508156809432e-17  3.6486544818960005e-17  3.6486581822853787e-17  3.6486610794986801e-17  3.6486504319506436e-17  3.6484735131992294e-17  6.9316395626461275e-02  8.7634865654282093e-02  1.2330206129039477e-01  1.6342837874823013e-01  2.1431371601454910e-01  2.7330679722296747e-01  3.3993541295500562e-01  4.1102359433875268e-01  4.8250971751173011e-01  5.4892400823452092e-01  6.0419020913557497e-01  6.4233783529618560e-01  6.5851638846587046e-01  6.4993472945761976e-01  6.1654131400453471e-01  5.6122002843128438e-01  4.8940749239867398e-01  4.0818748866829385e-01  3.2507348418732629e-01  2.4678134799996035e-01  1.7828811851578347e-01  1.2237023315427165e-01  7.9658100935756482e-02  4.9094837019597243e-02  2.8598167285431190e-02  1.5717246275628559e-02  8.1355258705016510e-03  3.9591130213659561e-03  1.8081916128882638e-03  7.7367349882654258e-04  3.0958080803677421e-04  1.1564757850210763e-04  4.0262296229303743e-05  1.3041479660072135e-05  3.9237876872853734e-06  1.0948105294934565e-06  2.8284949604349508e-07  6.7562984653178607e-08  1.4899778597985646e-08  3.0295195172128960e-09  5.6717183113759999e-10  9.7640893648542238e-11  1.5435978945956690e-11  2.2375237873168572e-12  2.9686463496563660e-13  3.5983367898127501e-14  3.9953024720812080e-15  4.3053744250979554e-16  7.1619762462940152e-17  3.9314429716853898e-17  3.6768495276169730e-17  3.6600935971890093e-17  3.6592998136382464e-17  3.6592968143603055e-17  3.6593047475206965e-17  3.6593091244709614e-17  3.6593129232679537e-17  3.6593166661816790e-17  3.6593204076145897e-17  3.6593241497348689e-17  3.6593278871523580e-17  3.6593316412796955e-17  3.6593359794848647e-17  3.6593481770454029e-17  3.6594517702982348e-17  5.0892687405648590e-02  6.5614083310756854e-02  9.4931292410007390e-02  1.2914376943563055e-01  1.7400894783384752e-01  2.2802858359211661e-01  2.9154252262381603e-01  3.6246211961803682e-01  4.3763878492234909e-01  5.1219692450889043e-01  5.8009337629385538e-01  6.3467451761684801e-01  6.6967402513551733e-01  6.8030583748475471e-01  6.6427139428913939e-01  6.2238653685736456e-01  5.5862423500012193e-01  4.7950521777952271e-01  3.9295788296471679e-01  3.0692897117391199e-01  2.2809891656626638e-01  1.6100888509902431e-01  1.0776031621908601e-01  6.8262895223756254e-02  4.0855968949064202e-02  2.3061833382173290e-02  1.2255123061958528e-02  6.1198673573992883e-03  2.8666885656726160e-03  1.2573255926519040e-03  5.1542043896887172e-04  1.9712700488046640e-04  7.0215690838279463e-05  2.3252560372901497e-05  7.1468729139620850e-06  2.0353929905276124e-06  5.3624934988791565e-07  1.3049530842061362e-07  2.9287547287740684e-08  6.0535813340490715e-09  1.1508037938651132e-09  2.0096290360645561e-10  3.2202659129925000e-11  4.7312590396644881e-12  6.3712414892011105e-13  7.8695747187001709e-14  8.9579303105846129e-15  9.7023243544844844e-16  1.2760060200329231e-16  4.5050538248037219e-17  3.7430529317322480e-17  3.6753260645467364e-17  3.6693836098499557e-17  3.6688620295765887e-17  3.6688190734085994e-17  3.6688187570163918e-17  3.6688222146026874e-17  3.6688260007191007e-17  3.6688298176049133e-17  3.6688336406557405e-17  3.6688374681352433e-17  3.6688412774684233e-17  3.6688447200230582e-17  3.6688437314386565e-17  3.6687928846600500e-17  3.6283697554387546e-02  4.7717363824387640e-02  7.1005280952276831e-02  9.9167354204743999e-02  1.3734562502792583e-01  1.8505983935602280e-01  2.4340014289369016e-01  3.1140534051253860e-01  3.8703274693643674e-01  4.6637463359426912e-01  5.4392728522109501e-01  6.1291395295134032e-01  6.6613387015816972e-01  6.9707503171474894e-01  7.0114830756417335e-01  6.7672086766358686e-01  6.2565465866767001e-01  5.5314476012482594e-01  4.6684381656451518e-01  3.7547218141698829e-01  2.8727382678675856e-01  2.0871750251428856e-01  1.4374473113143210e-01  9.3673011824088201e-02  5.7655365485841444e-02  3.3456133956916753e-02  1.8269506060793871e-02  9.3711956451960447e-03  4.5069472565733328e-03  2.0285881646229429e-03  8.5298106480461019e-04  3.3445517377436799e-04  1.2207333617722735e-04  4.1403372982594561e-05  1.3027188725586505e-05  3.7962820637411431e-06  1.0230119101284083e-06  2.5454946283399612e-07  5.8401618521523241e-08  1.2338745746560010e-08  2.3976440088866400e-09  4.2803569580625781e-10  7.0129597549246480e-11  1.0534132762226184e-11  1.4490210284260351e-12  1.8226503215833579e-13  2.0935708221273969e-14  2.2117507774878645e-15  2.4011622144393459e-16  5.3475784680316420e-17  3.7914145203961345e-17  3.6828535253319585e-17  3.6775348853112874e-17  3.6775524387595226e-17  3.6776032119424394e-17  3.6776148229143814e-17  3.6776195924650581e-17  3.6776235477717034e-17  3.6776274269088671e-17  3.6776313024890680e-17  3.6776351804835864e-17  3.6776390771266435e-17  3.6776431957581101e-17  3.6776497758640656e-17  3.6776834154695296e-17  2.5098611502147629e-02  3.3690317891918037e-02  5.1589772772738386e-02  7.4016900030232313e-02  1.0543595437018119e-01  1.4615318449496228e-01  1.9784689294240124e-01  2.6060693859879108e-01  3.3357244028322824e-01  4.1406768340516237e-01  4.9758108843723853e-01  5.7780625448818501e-01  6.4722971324636558e-01  6.9811498175968068e-01  7.2381343158018063e-01  7.2010741554299096e-01  6.8624324024658290e-01  6.2532492831471220e-01  5.4389251088711354e-01  4.5074174025610958e-01  3.5528061302519542e-01  2.6586389406302552e-01  1.8853831019681172e-01  1.2647185115916440e-01  8.0100948671074729e-02  4.7810281248509355e-02  2.6843016782730787e-02  1.4149863132954571e-02  6.9898637507872447e-03  3.2297441103328940e-03  1.3932961331906992e-03  5.6013974185997371e-04  2.0947913135477018e-04  7.2745437688236168e-05  2.3417430183580960e-05  6.9760671846311645e-06  1.9200545313009919e-06  4.8749177248528222e-07  1.1400337601895629e-07  2.4520926921268150e-08  4.8441948834463271e-09  8.7779206773643612e-10  1.4571017702655914e-10  2.2130463350634964e-11  3.0720747489015936e-12  3.8951451118098867e-13  4.5139986741642077e-14  4.8179959872653487e-15  5.0395285017747124e-16  7.9610978902919118e-17  4.0645912779286929e-17  3.7197784352200093e-17  3.6888262939388916e-17  3.6858636641370839e-17  3.6855614174186690e-17  3.6855326920233395e-17  3.6855331830492041e-17  3.6855367422503517e-17  3.6855406092571440e-17  3.6855445080001081e-17  3.6855484113161334e-17  3.6855523062731210e-17  3.6855560772684968e-17  3.6855585016934843e-17  3.6855463036623561e-17  1.6824515683063319e-02  2.3061994051100283e-02  3.6355440190011842e-02  5.3606499560028442e-02  7.8577113468944790e-02  1.1211802685621480e-01  1.5630597684505182e-01  2.1211660505325400e-01  2.7981148136335665e-01  3.5805565778289722e-01  4.4365196709446619e-01  5.3129504625846546e-01  6.1382435026949655e-01  6.8294247917719109e-01  7.3042792132628731e-01  7.4962924476459913e-01  7.3690886278619971e-01  6.9262606240658975e-01  6.2132285839206047e-01  5.3098180810143869e-01  4.3150902462644958e-01  3.3284755219747086e-01  2.4324079193069223e-01  1.6809180321457817e-01  1.0963598894753830e-01  6.7364106129613646e-02  3.8917201407130980e-02  2.1098890147405371e-02  1.0713980407273088e-02  5.0861295350803854e-03  2.2529343592532333e-03  9.2944603235970292e-04  3.5646668814551008e-04  1.2686921137159421e-04  4.1829477332141555e-05  1.2754729925915888e-05  3.5911053360062643e-06  9.3216892815045612e-07  2.2276811320389220e-07  4.8947609765121103e-08  9.8766499468358354e-09  1.8282065329298219e-09  3.1015653959636247e-10  4.8189134889127905e-11  6.8527879011613595e-12  8.9147403936325891e-13  1.0603216055693866e-13  1.1535997744767274e-14  1.1695517519360038e-15  1.3687225833063484e-16  4.4539357827270358e-17  3.7369210758443234e-17  3.6934515465550945e-17  3.6924098121046666e-17  3.6926534201744364e-17  3.6927131034163967e-17  3.6927250546763659e-17  3.6927298945831370e-17  3.6927338882562135e-17  3.6927377985735211e-17  3.6927417043966931e-17  3.6927456185091957e-17  3.6927496051441310e-17  3.6927543272931433e-17  3.6927669316399157e-17  1.0917531849283646e-02  1.5290673613608261e-02  2.4827026178750954e-02  3.7644017300547943e-02  5.6812877076052398e-02  8.3492014467875325e-02  1.1994562458908675e-01  1.6779828503593755e-01  2.2826054435148985e-01  3.0129593915960207e-01  3.8518339390607481e-01  4.7602340898244450e-01  5.6763569946910797e-01  6.5191305775598840e-01  7.1976638510362378e-01  7.6257063937706215e-01  7.7385500542496544e-01  7.5081321127627010e-01  6.9517572712013298e-01  6.1311180611115745e-01  5.1410586981867212e-01  4.0908304065553169e-01  3.0830974618408730e-01  2.1965625971346484e-01  1.4765144447741377e-01  9.3459090349880827e-02  5.5595987539644738e-02  3.1020601789366171e-02  1.6202789784571500e-02  7.9070466104124212e-03  3.5981847813457684e-03  1.5239419172316925e-03  5.9959172453661767e-04  2.1875144966282943e-04  7.3872605086558468e-05  2.3052015565699793e-05  6.6361009390600047e-06  1.7595961397878289e-06  4.2910033125220213e-07  9.6101895298878208e-08  1.9739754632535285e-08  3.7138019874876057e-09  6.3915023760203633e-10  1.0049095990447839e-10  1.4414366793572689e-11  1.8835381647224461e-12  2.2390057997209453e-13  2.4211180790825810e-14  2.4105639825088699e-15  2.5045924459591815e-16  5.5045043672904101e-17  3.8528098603196490e-17  3.7138675068265837e-17  3.7008522396775687e-17  3.6993894505854311e-17  3.6992065943938241e-17  3.6991865387889386e-17  3.6991875332254013e-17  3.6991910900159299e-17  3.6991949353588206e-17  3.6991988120976178e-17  3.6992026899193301e-17  3.6992065308421758e-17  3.6992099766623041e-17  3.6992091882256834e-17  6.8497404818362445e-03  9.8076363895262669e-03  1.6409061369418044e-02  2.5597693143118092e-02  3.9797866576492646e-02  6.0273897738637963e-02  8.9284554350144721e-02  1.2884477969733837e-01  1.8086660956213763e-01  2.4643560566479919e-01  3.2529119789165800e-01  4.1516275406337916e-01  5.1134744560488588e-01  6.0665886256315671e-01  6.9197231161062744e-01  7.5741730478459013e-01  7.9409105905378297e-01  7.9593476278721853e-01  7.6126472774923859e-01  6.9345450136518649e-01  6.0046835485468908e-01  4.9329902089343930e-01  3.8373237478492533e-01  2.8208955201644981e-01  1.9557853817335583e-01  1.2763226383037246e-01  7.8240251013921111e-02  4.4962885294135585e-02  2.4174480337740542e-02  1.2135806098766203e-02  5.6771009938326126e-03  2.4699149117620679e-03  9.9747749220007766e-04  3.7323345634330196e-04  1.2916117014102676e-04  4.1267338747571087e-05  1.2153155109743323e-05  3.2938557487512643e-06  8.2039251057947774e-07  1.8752398722325315e-07  3.9289752759389585e-08  7.5373448889316574e-09  1.3227406740545143e-09  2.1219661737798944e-10  3.1104123138700323e-11  4.1656240954452690e-12  5.0991952447892624e-13  5.7121227971935605e-14  5.8849583278600109e-15  5.8390242943617482e