<?xml version="1.0"?>
<VTKFile type="UnstructuredGrid"  version="0.1"  >
<UnstructuredGrid>
<Piece  NumberOfPoints="4225" NumberOfCells="8192">
<Points>
<DataArray  type="Float64"  NumberOfComponents="3"  format="ascii">0 0 0  0.015625 0 0  0.03125 0 0  0.046875 0 0  0.0625 0 0  0.078125 0 0  0.09375 0 0  0.109375 0 0  0.125 0 0  0.140625 0 0  0.15625 0 0  0.171875 0 0  0.1875 0 0  0.203125 0 0  0.21875 0 0  0.234375 0 0  0.25 0 0  0.265625 0 0  0.28125 0 0  0.296875 0 0  0.3125 0 0  0.328125 0 0  0.34375 0 0  0.359375 0 0  0.375 0 0  0.390625 0 0  0.40625 0 0  0.421875 0 0  0.4375 0 0  0.453125 0 0  0.46875 0 0  0.484375 0 0  0.5 0 0  0.515625 0 0  0.53125 0 0  0.546875 0 0  0.5625 0 0  0.578125 0 0  0.59375 0 0  0.609375 0 0  0.625 0 0  0.640625 0 0  0.65625 0 0  0.671875 0 0  0.6875 0 0  0.703125 0 0  0.71875 0 0  0.734375 0 0  0.75 0 0  0.765625 0 0  0.78125 0 0  0.796875 0 0  0.8125 0 0  0.828125 0 0  0.84375 0 0  0.859375 0 0  0.875 0 0  0.890625 0 0  0.90625 0 0  0.921875 0 0  0.9375 0 0  0.953125 0 0  0.96875 0 0  0.984375 0 0  1 0 0  0 0.015625 0  0.015625 0.015625 0  0.03125 0.015625 0  0.046875 0.015625 0  0.0625 0.015625 0  0.078125 0.015625 0  0.09375 0.015625 0  0.109375 0.015625 0  0.125 0.015625 0  0.140625 0.015625 0  0.15625 0.015625 0  0.171875 0.015625 0  0.1875 0.015625 0  0.203125 0.015625 0  0.21875 0.015625 0  0.234375 0.015625 0  0.25 0.015625 0  0.265625 0.015625 0  0.28125 0.015625 0  0.296875 0.015625 0  0.3125 0.015625 0  0.328125 0.015625 0  0.34375 0.015625 0  0.359375 0.015625 0  0.375 0.015625 0  0.390625 0.015625 0  0.40625 0.015625 0  0.421875 0.015625 0  0.4375 0.015625 0  0.453125 0.015625 0  0.46875 0.015625 0  0.484375 0.015625 0  0.5 0.015625 0  0.515625 0.015625 0  0.53125 0.015625 0  0.546875 0.015625 0  0.5625 0.015625 0  0.578125 0.015625 0  0.59375 0.015625 0  0.609375 0.015625 0  0.625 0.015625 0  0.640625 0.015625 0  0.65625 0.015625 0  0.671875 0.015625 0  0.6875 0.015625 0  0.703125 0.015625 0  0.71875 0.015625 0  0.734375 0.015625 0  0.75 0.015625 0  0.765625 0.015625 0  0.78125 0.015625 0  0.796875 0.015625 0  0.8125 0.015625 0  0.828125 0.015625 0  0.84375 0.015625 0  0.859375 0.015625 0  0.875 0.015625 0  0.890625 0.015625 0  0.90625 0.015625 0  0.921875 0.015625 0  0.9375 0.015625 0  0.953125 0.015625 0  0.96875 0.015625 0  0.984375 0.015625 0  1 0.015625 0  0 0.03125 0  0.015625 0.03125 0  0.03125 0.03125 0  0.046875 0.03125 0  0.0625 0.03125 0  0.078125 0.03125 0  0.09375 0.03125 0  0.109375 0.03125 0  0.125 0.03125 0  0.140625 0.03125 0  0.15625 0.03125 0  0.171875 0.03125 0  0.1875 0.03125 0  0.203125 0.03125 0  0.21875 0.03125 0  0.234375 0.03125 0  0.25 0.03125 0  0.265625 0.03125 0  0.28125 0.03125 0  0.296875 0.03125 0  0.3125 0.03125 0  0.328125 0.03125 0  0.34375 0.03125 0  0.359375 0.03125 0  0.375 0.03125 0  0.390625 0.03125 0  0.40625 0.03125 0  0.421875 0.03125 0  0.4375 0.03125 0  0.453125 0.03125 0  0.46875 0.03125 0  0.484375 0.03125 0  0.5 0.03125 0  0.515625 0.03125 0  0.53125 0.03125 0  0.546875 0.03125 0  0.5625 0.03125 0  0.578125 0.03125 0  0.59375 0.03125 0  0.609375 0.03125 0  0.625 0.03125 0  0.640625 0.03125 0  0.65625 0.03125 0  0.671875 0.03125 0  0.6875 0.03125 0  0.703125 0.03125 0  0.71875 0.03125 0  0.734375 0.03125 0  0.75 0.03125 0  0.765625 0.03125 0  0.78125 0.03125 0  0.796875 0.03125 0  0.8125 0.03125 0  0.828125 0.03125 0  0.84375 0.03125 0  0.859375 0.03125 0  0.875 0.03125 0  0.890625 0.03125 0  0.90625 0.03125 0  0.921875 0.03125 0  0.9375 0.03125 0  0.953125 0.03125 0  0.96875 0.03125 0  0.984375 0.03125 0  1 0.03125 0  0 0.046875 0  0.015625 0.046875 0  0.03125 0.046875 0  0.046875 0.046875 0  0.0625 0.046875 0  0.078125 0.046875 0  0.09375 0.046875 0  0.109375 0.046875 0  0.125 0.046875 0  0.140625 0.046875 0  0.15625 0.046875 0  0.171875 0.046875 0  0.1875 0.046875 0  0.203125 0.046875 0  0.21875 0.046875 0  0.234375 0.046875 0  0.25 0.046875 0  0.265625 0.046875 0  0.28125 0.046875 0  0.296875 0.046875 0  0.3125 0.046875 0  0.328125 0.046875 0  0.34375 0.046875 0  0.359375 0.046875 0  0.375 0.046875 0  0.390625 0.046875 0  0.40625 0.046875 0  0.421875 0.046875 0  0.4375 0.046875 0  0.453125 0.046875 0  0.46875 0.046875 0  0.484375 0.046875 0  0.5 0.046875 0  0.515625 0.046875 0  0.53125 0.046875 0  0.546875 0.046875 0  0.5625 0.046875 0  0.578125 0.046875 0  0.59375 0.046875 0  0.609375 0.046875 0  0.625 0.046875 0  0.640625 0.046875 0  0.65625 0.046875 0  0.671875 0.046875 0  0.6875 0.046875 0  0.703125 0.046875 0  0.71875 0.046875 0  0.734375 0.046875 0  0.75 0.046875 0  0.765625 0.046875 0  0.78125 0.046875 0  0.796875 0.046875 0  0.8125 0.046875 0  0.828125 0.046875 0  0.84375 0.046875 0  0.859375 0.046875 0  0.875 0.046875 0  0.890625 0.046875 0  0.90625 0.046875 0  0.921875 0.046875 0  0.9375 0.046875 0  0.953125 0.046875 0  0.96875 0.046875 0  0.984375 0.046875 0  1 0.046875 0  0 0.0625 0  0.015625 0.0625 0  0.03125 0.0625 0  0.046875 0.0625 0  0.0625 0.0625 0  0.078125 0.0625 0  0.09375 0.0625 0  0.109375 0.0625 0  0.125 0.0625 0  0.140625 0.0625 0  0.15625 0.0625 0  0.171875 0.0625 0  0.1875 0.0625 0  0.203125 0.0625 0  0.21875 0.0625 0  0.234375 0.0625 0  0.25 0.0625 0  0.265625 0.0625 0  0.28125 0.0625 0  0.296875 0.0625 0  0.3125 0.0625 0  0.328125 0.0625 0  0.34375 0.0625 0  0.359375 0.0625 0  0.375 0.0625 0  0.390625 0.0625 0  0.40625 0.0625 0  0.421875 0.0625 0  0.4375 0.0625 0  0.453125 0.0625 0  0.46875 0.0625 0  0.484375 0.0625 0  0.5 0.0625 0  0.515625 0.0625 0  0.53125 0.0625 0  0.546875 0.0625 0  0.5625 0.0625 0  0.578125 0.0625 0  0.59375 0.0625 0  0.609375 0.0625 0  0.625 0.0625 0  0.640625 0.0625 0  0.65625 0.0625 0  0.671875 0.0625 0  0.6875 0.0625 0  0.703125 0.0625 0  0.71875 0.0625 0  0.734375 0.0625 0  0.75 0.0625 0  0.765625 0.0625 0  0.78125 0.0625 0  0.796875 0.0625 0  0.8125 0.0625 0  0.828125 0.0625 0  0.84375 0.0625 0  0.859375 0.0625 0  0.875 0.0625 0  0.890625 0.0625 0  0.90625 0.0625 0  0.921875 0.0625 0  0.9375 0.0625 0  0.953125 0.0625 0  0.96875 0.0625 0  0.984375 0.0625 0  1 0.0625 0  0 0.078125 0  0.015625 0.078125 0  0.03125 0.078125 0  0.046875 0.078125 0  0.0625 0.078125 0  0.078125 0.078125 0  0.09375 0.078125 0  0.109375 0.078125 0  0.125 0.078125 0  0.140625 0.078125 0  0.15625 0.078125 0  0.171875 0.078125 0  0.1875 0.078125 0  0.203125 0.078125 0  0.21875 0.078125 0  0.234375 0.078125 0  0.25 0.078125 0  0.265625 0.078125 0  0.28125 0.078125 0  0.296875 0.078125 0  0.3125 0.078125 0  0.328125 0.078125 0  0.34375 0.078125 0  0.359375 0.078125 0  0.375 0.078125 0  0.390625 0.078125 0  0.40625 0.078125 0  0.421875 0.078125 0  0.4375 0.078125 0  0.453125 0.078125 0  0.46875 0.078125 0  0.484375 0.078125 0  0.5 0.078125 0  0.515625 0.078125 0  0.53125 0.078125 0  0.546875 0.078125 0  0.5625 0.078125 0  0.578125 0.078125 0  0.59375 0.078125 0  0.609375 0.078125 0  0.625 0.078125 0  0.640625 0.078125 0  0.65625 0.078125 0  0.671875 0.078125 0  0.6875 0.078125 0  0.703125 0.078125 0  0.71875 0.078125 0  0.734375 0.078125 0  0.75 0.078125 0  0.765625 0.078125 0  0.78125 0.078125 0  0.796875 0.078125 0  0.8125 0.078125 0  0.828125 0.078125 0  0.84375 0.078125 0  0.859375 0.078125 0  0.875 0.078125 0  0.890625 0.078125 0  0.90625 0.078125 0  0.921875 0.078125 0  0.9375 0.078125 0  0.953125 0.078125 0  0.96875 0.078125 0  0.984375 0.078125 0  1 0.078125 0  0 0.09375 0  0.015625 0.09375 0  0.03125 0.09375 0  0.046875 0.09375 0  0.0625 0.09375 0  0.078125 0.09375 0  0.09375 0.09375 0  0.109375 0.09375 0  0.125 0.09375 0  0.140625 0.09375 0  0.15625 0.09375 0  0.171875 0.09375 0  0.1875 0.09375 0  0.203125 0.09375 0  0.21875 0.09375 0  0.234375 0.09375 0  0.25 0.09375 0  0.265625 0.09375 0  0.28125 0.09375 0  0.296875 0.09375 0  0.3125 0.09375 0  0.328125 0.09375 0  0.34375 0.09375 0  0.359375 0.09375 0  0.375 0.09375 0  0.390625 0.09375 0  0.40625 0.09375 0  0.421875 0.09375 0  0.4375 0.09375 0  0.453125 0.09375 0  0.46875 0.09375 0  0.484375 0.09375 0  0.5 0.09375 0  0.515625 0.09375 0  0.53125 0.09375 0  0.546875 0.09375 0  0.5625 0.09375 0  0.578125 0.09375 0  0.59375 0.09375 0  0.609375 0.09375 0  0.625 0.09375 0  0.640625 0.09375 0  0.65625 0.09375 0  0.671875 0.09375 0  0.6875 0.09375 0  0.703125 0.09375 0  0.71875 0.09375 0  0.734375 0.09375 0  0.75 0.09375 0  0.765625 0.09375 0  0.78125 0.09375 0  0.796875 0.09375 0  0.8125 0.09375 0  0.828125 0.09375 0  0.84375 0.09375 0  0.859375 0.09375 0  0.875 0.09375 0  0.890625 0.09375 0  0.90625 0.09375 0  0.921875 0.09375 0  0.9375 0.09375 0  0.953125 0.09375 0  0.96875 0.09375 0  0.984375 0.09375 0  1 0.09375 0  0 0.109375 0  0.015625 0.109375 0  0.03125 0.109375 0  0.046875 0.109375 0  0.0625 0.109375 0  0.078125 0.109375 0  0.09375 0.109375 0  0.109375 0.109375 0  0.125 0.109375 0  0.140625 0.109375 0  0.15625 0.109375 0  0.171875 0.109375 0  0.1875 0.109375 0  0.203125 0.109375 0  0.21875 0.109375 0  0.234375 0.109375 0  0.25 0.109375 0  0.265625 0.109375 0  0.28125 0.109375 0  0.296875 0.109375 0  0.3125 0.109375 0  0.328125 0.109375 0  0.34375 0.109375 0  0.359375 0.109375 0  0.375 0.109375 0  0.390625 0.109375 0  0.40625 0.109375 0  0.421875 0.109375 0  0.4375 0.109375 0  0.453125 0.109375 0  0.46875 0.109375 0  0.484375 0.109375 0  0.5 0.109375 0  0.515625 0.109375 0  0.53125 0.109375 0  0.546875 0.109375 0  0.5625 0.109375 0  0.578125 0.109375 0  0.59375 0.109375 0  0.609375 0.109375 0  0.625 0.109375 0  0.640625 0.109375 0  0.65625 0.109375 0  0.671875 0.109375 0  0.6875 0.109375 0  0.703125 0.109375 0  0.71875 0.109375 0  0.734375 0.109375 0  0.75 0.109375 0  0.765625 0.109375 0  0.78125 0.109375 0  0.796875 0.109375 0  0.8125 0.109375 0  0.828125 0.109375 0  0.84375 0.109375 0  0.859375 0.109375 0  0.875 0.109375 0  0.890625 0.109375 0  0.90625 0.109375 0  0.921875 0.109375 0  0.9375 0.109375 0  0.953125 0.109375 0  0.96875 0.109375 0  0.984375 0.109375 0  1 0.109375 0  0 0.125 0  0.015625 0.125 0  0.03125 0.125 0  0.046875 0.125 0  0.0625 0.125 0  0.078125 0.125 0  0.09375 0.125 0  0.109375 0.125 0  0.125 0.12
[...]
<PointData  Scalars="f_14"> 
<DataArray  type="Float64"  Name="f_14"  format="ascii">3.3868693808168449e-01  3.1375867036312255e-01  2.7640604491160342e-01  2.4017576161018594e-01  2.0329340086224890e-01  1.6811093887671527e-01  1.3545451638176470e-01  1.0628807564817581e-01  8.1104586363919498e-02  6.0117864611081318e-02  4.3231572355212210e-02  3.0123147470874922e-02  2.0311108361588497e-02  1.3235074426399490e-02  8.3230883526427997e-03  5.0442909827722177e-03  2.9420332145282157e-03  1.6488642381485056e-03  8.8665031903280820e-04  4.5674417051222785e-04  2.2503601577454632e-04  1.0587107928644005e-04  4.7480982604552526e-05  2.0264390701298145e-05  8.2159518480495561e-06  3.1587679957429929e-06  1.1495446279065277e-06  3.9526200531238742e-07  1.2817139022093812e-07  3.9123331666867188e-08  1.1220474811012401e-08  3.0179629045910165e-09  7.5988840384467702e-10  1.7878869932512206e-10  3.9239749789098370e-11  8.0200610820698617e-12  1.5240563852535879e-12  2.6889146134414764e-13  4.4010302338747301e-14  6.7022258932355682e-15  9.7812930438936063e-16  1.6688993250958094e-16  6.0786797548324875e-17  4.7995210837248379e-17  4.6573293607661750e-17  4.6427963135362779e-17  4.6413955469763392e-17  4.6412561915412044e-17  4.6412212643935241e-17  4.6411968582083119e-17  4.6411724802067880e-17  4.6411484135899923e-17  4.6411242783921785e-17  4.6411002181052273e-17  4.6410762640630767e-17  4.6410527340116651e-17  4.6410306904322452e-17  4.6410135248020469e-17  4.6410099210509823e-17  4.6410330476148284e-17  4.6410580915319942e-17  4.6407808359180360e-17  4.6388437914158069e-17  4.6330065836021451e-17  4.6471908163022154e-17  3.8031013593280405e-01  3.5549970413596371e-01  3.1776060934151085e-01  2.8180257737483677e-01  2.4301382105904365e-01  2.0503300515134809e-01  1.6858145537411739e-01  1.3507892118723711e-01  1.0530248534051891e-01  7.9787231155878616e-02  5.8680949627408781e-02  4.1841078378230638e-02  2.8885567058398006e-02  1.9282411178954583e-02  1.2429450820495786e-02  7.7258932462693775e-03  4.6241229047067995e-03  2.6610706977344958e-03  1.4701944965203242e-03  7.7859753599229689e-04  3.9462305946952564e-04  1.9110763532930453e-04  8.8283274607349496e-05  3.8837125492379964e-05  1.6241759358353865e-05  6.4457404611851640e-06  2.4232139484917358e-06  8.6140400336324948e-07  2.8902100207664416e-07  9.1362550982997026e-08  2.7160242192714915e-08  7.5795226057616198e-09  1.9820722174349939e-09  4.8485166054642113e-10  1.1075751644000199e-10  2.3588615701727071e-11  4.6764825845559335e-12  8.6177666812005126e-13  1.4743679480285283e-13  2.3417011091535748e-14  3.4786136734977667e-15  5.1376002378854629e-16  1.0635850071914117e-16  5.4684368368485238e-17  4.8635291011763659e-17  4.7983303636217589e-17  4.7917980372673901e-17  4.7911866890769731e-17  4.7911070884801746e-17  4.7910781099183612e-17  4.7910511229726545e-17  4.7910250524784161e-17  4.7909987799544285e-17  4.7909726099090396e-17  4.7909464242869591e-17  4.7909203060859008e-17  4.7908944250431046e-17  4.7908696492641713e-17  4.7908493881279765e-17  4.7908448670493847e-17  4.7908840069947610e-17  4.7909956891066718e-17  4.7909660208259080e-17  4.7888308891534918e-17  4.7736591903708513e-17  4.3392684840708950e-01  4.1589118617129744e-01  3.8321237861975271e-01  3.4920854341731017e-01  3.0936566223598533e-01  2.6843295685718205e-01  2.2702077623257613e-01  1.8721657407414799e-01  1.5026653055020311e-01  1.1727973951971533e-01  8.8885198867691598e-02  6.5336725523521419e-02  4.6518778945209303e-02  3.2038262388386952e-02  2.1314784315718576e-02  1.3679028875354729e-02  8.4559774302556661e-03  5.0276296431441200e-03  2.8707299398761984e-03  1.5717119722282616e-03  8.2377662186993773e-04  4.1265707072315832e-04  1.9723457522308194e-04  8.9793621552724937e-05  3.8870159347865360e-05  1.5970620548000661e-05  6.2169352196148372e-06  2.2886796446161318e-06  7.9532759941956283e-07  2.6040802637919243e-07  8.0187212924449578e-08  2.3179187097643608e-08  6.2783107257449301e-09  1.5906065167879687e-09  3.7627175711972817e-10  8.2971448078478910e-11  1.7027231129567341e-11  3.2470376946253291e-12  5.7458591705963253e-13  9.4255264927433399e-14  1.4346257315984624e-14  2.0559684451458368e-15  3.1014740603427849e-16  8.1349642761715904e-17  5.3699073963747085e-17  5.0622848301488987e-17  5.0306616804510585e-17  5.0276783263353483e-17  5.0273827025893292e-17  5.0273354292136702e-17  5.0273032541710975e-17  5.0272740813413512e-17  5.0272444547470970e-17  5.0272150654341129e-17  5.0271855933149746e-17  5.0271561238709962e-17  5.0271265025326319e-17  5.0270963407687098e-17  5.0270644848967818e-17  5.0270289269376306e-17  5.0269922014243025e-17  5.0270000522858143e-17  5.0273341196329575e-17  5.0293261006839010e-17  5.0384629293822389e-17  4.7557482661869194e-01  4.6276889852757186e-01  4.3704309129828323e-01  4.0732580585127781e-01  3.6994248808621227e-01  3.2924342852712662e-01  2.8572380077488907e-01  2.4193805718224876e-01  1.9948290914341976e-01  1.6002380235025429e-01  1.2471530520642062e-01  9.4316880198900249e-02  6.9120173434300158e-02  4.9021707078972687e-02  3.3599640104900991e-02  2.2224325124386664e-02  1.4165618390882422e-02  8.6877211393619272e-03  5.1188416223648791e-03  2.8930002679271325e-03  1.5657916731924260e-03  8.1023160890561421e-04  4.0016425242401854e-04  1.8830846241031703e-04  8.4282531536045393e-05  3.5814766700327812e-05  1.4422907111501360e-05  5.4942713809802382e-06  1.9761891102875939e-06  6.6988456041352216e-07  2.1360814935011183e-07  6.3955991929710590e-08  1.7947337353120416e-08  4.7119419479744927e-09  1.1553879383732325e-09  2.6415415672719909e-10  5.6220435126658399e-11  1.1121963048296060e-11  2.0422424116233858e-12  3.4764587953891802e-13  5.4826440166293111e-14  8.0347022724737485e-15  1.1270207376993154e-15  1.8588096305319665e-16  6.7617012590781125e-17  5.3928179829011604e-17  5.2466672954884063e-17  5.2323570276393963e-17  5.2310126316665632e-17  5.2308797288056532e-17  5.2308365424959288e-17  5.2308047046385652e-17  5.2307720921679034e-17  5.2307400637871411e-17  5.2307078586270152e-17  5.2306757532417208e-17  5.2306437022787871e-17  5.2306119087179355e-17  5.2305806445369350e-17  5.2305496474341839e-17  5.2305133575067864e-17  5.2304376376545956e-17  5.2301618198866346e-17  5.2290231523991320e-17  5.2245001499884411e-17  5.0704094351041751e-01  5.0243348437686064e-01  4.8808181714742399e-01  4.6611335626930761e-01  4.3469839790367570e-01  3.9710924042755735e-01  3.5400034113610157e-01  3.0806600691579239e-01  2.6118185099460312e-01  2.1554711719717221e-01  1.7290430902370688e-01  1.3465196863532378e-01  1.0166374205068243e-01  7.4316448434534554e-02  5.2523983526690604e-02  3.5839708076620368e-02  2.3575716139798492e-02  1.4928072264972742e-02  9.0846271859143773e-03  5.3049879877472023e-03  2.9677478705204150e-03  1.5878493431985530e-03  8.1112666176357895e-04  3.9491776783967953e-04  1.8293206094472346e-04  8.0473223442652551e-05  3.3557776247941303e-05  1.3240610343738822e-05  4.9338121924660598e-06  1.7330101738451285e-06  5.7272854532350765e-07  1.7775293856314705e-07  5.1713790805997915e-08  1.4077790657036070e-08  3.5796341082265685e-09  8.4875458273379628e-10  1.8735218161555001e-10  3.8441271192447210e-11  7.3209520695829103e-12  1.2923717676320689e-12  2.1123823340653307e-13  3.1965147051707483e-14  4.5082079038261453e-15  6.2814152957358943e-16  1.2263972891006979e-16  6.1992010507101957e-17  5.5289880882599414e-17  5.4610171848928703e-17  5.4545862636073347e-17  5.4540215780413369e-17  5.4539372156846612e-17  5.4539011312099155e-17  5.4538649078605111e-17  5.4538301282352251e-17  5.4537949346452147e-17  5.4537599110474381e-17  5.4537247883273732e-17  5.4536896136056227e-17  5.4536543849264248e-17  5.4536198101564207e-17  5.4535901336563672e-17  5.4535853589324295e-17  5.4536883753004575e-17  5.4542171320623806e-17  5.4563313145162176e-17  5.2349487140135165e-01  5.2789147682524240e-01  5.2684243702650435e-01  5.1500170027388781e-01  4.9295706325588684e-01  4.6210693173781481e-01  4.2314862907779183e-01  3.7841585726993165e-01  3.2988361758608320e-01  2.8007960455236036e-01  2.3125573579285294e-01  1.8546737437598770e-01  1.4427871716129806e-01  1.0872021041718324e-01  7.9245213646709806e-02  5.5791044367375899e-02  3.7882380845327128e-02  2.4770184864026983e-02  1.5572535297441237e-02  9.3978694047104922e-03  5.4352950955464871e-03  3.0075086057639766e-03  1.5893875035357372e-03  8.0080155639759994e-04  3.8398131365202545e-04  1.7489998730291478e-04  7.5536500524191555e-05  3.0874168061727745e-05  1.1920180670204626e-05  4.3390526340028312e-06  1.4863059082449722e-06  4.7819520634618904e-07  1.4423774934359549e-07  4.0713441116511692e-08  1.0735211246232257e-08  2.6396801520887623e-09  6.0428720291368356e-10  1.2858903855030702e-10  2.5397228859941401e-11  4.6492749430101474e-12  7.8785800100337452e-13  1.2347133528849529e-13  1.7910490468919085e-14  2.4393832092936098e-15  3.4974449319244699e-16  8.9915731419676912e-17  6.0184747647502069e-17  5.7061441246617928e-17  5.6758307244575485e-17  5.6731518500865151e-17  5.6728825769042958e-17  5.6728332621012031e-17  5.6727922437330638e-17  5.6727550328316818e-17  5.6727169399348085e-17  5.6726792676644579e-17  5.6726414688207489e-17  5.6726037301350820e-17  5.6725658855797801e-17  5.6725274398955548e-17  5.6724859005737514e-17  5.6724308974975452e-17  5.6723222680192766e-17  5.6720121984923715e-17  5.6709744995055664e-17  5.2346528883356636e-01  5.3739336168581486e-01  5.5118869669917148e-01  5.5184016470074160e-01  5.4238962453303141e-01  5.2189544781831054e-01  4.9102572561213226e-01  4.5134528531151452e-01  4.0467949504451933e-01  3.5356421944199251e-01  3.0057501441607060e-01  2.4832887406065102e-01  1.9910519901209739e-01  1.5471275700400738e-01  1.1634105921811551e-01  8.4541659790422316e-02  5.9276867477188237e-02  4.0041220071719931e-02  2.6016474865237157e-02  1.6233153205033640e-02  9.7106021606278622e-03  5.5595059938668961e-03  3.0409783393184932e-03  1.5863586894444830e-03  7.8778692964145741e-04  3.7173213896700668e-04  1.6635974778985411e-04  7.0475284804996039e-05  2.8207410227977221e-05  1.0646134320838865e-05  3.7817133184290061e-06  1.2618974953312535e-06  3.9480161839583730e-07  1.1559738160817521e-07  3.1618760152880377e-08  8.0650301646038376e-09  1.9151140845419739e-09  4.2267248862163723e-10  8.6568367314160171e-11  1.6429350209842772e-11  2.8852597411329797e-12  4.6828825447486528e-13  7.0192011863638355e-14  9.7432241731885740e-15  1.2903357625365163e-15  2.0301925121938140e-16  7.4455146740277452e-17  6.0505740600784964e-17  5.9113773642971555e-17  5.8987271227790160e-17  5.8975964797315155e-17  5.8974851445216969e-17  5.8974344470881933e-17  5.8973950276435119e-17  5.8973538656253549e-17  5.8973136208484348e-17  5.8972730845963774e-17  5.8972326872864985e-17  5.8971923138501353e-17  5.8971523313822322e-17  5.8971140180176168e-17  5.8970824788615167e-17  5.8970766143726345e-17  5.8971641666630749e-17  5.8975824586078322e-17  5.0630783648193223e-01  5.2920242164952858e-01  5.5774144948247550e-01  5.7189072266629704e-01  5.7711492068484604e-01  5.7001108798500211e-01  5.5108050086559257e-01  5.2072718173741761e-01  4.8028968290209434e-01  4.3189846466652881e-01  3.7812839989240915e-01  3.2190001247946065e-01  2.6608217456259980e-01  2.1326649127236205e-01  1.6550479594034029e-01  1.2417665822341337e-01  8.9939288939541548e-02  6.2785916759044019e-02  4.2177600143956571e-02  2.7220373303576306e-02  1.6848666837773592e-02  9.9849252593686069e-03  5.6553875666396124e-03  3.0558478262974562e-03  1.5723543756900791e-03  7.6895664987230701e-04  3.5674431939736932e-04  1.5670303187418657e-04  6.5045503710626742e-05  2.5464054549485052e-05  9.3833741113810662e-06  3.2483765465969375e-06  1.0544159954499680e-06  3.2030972752326991e-07  9.0893047438709231e-08  2.4049322211781400e-08  5.9226831087159279e-09  1.3552989946379942e-09  2.8769875857650773e-10  5.6564322537300948e-11  1.0284803734958850e-11  1.7269726552284144e-12  2.6747242974200654e-13  3.8199993303295598e-14  5.0649263416723866e-15  6.6446572040872383e-16  1.2796834082205661e-16  6.8004651655929563e-17  6.1857596298870633e-17  6.1282870608464941e-17  6.1232448797557245e-17  6.1228368767346320e-17  6.1227566998402158e-17  6.1227149154342028e-17  6.1226703716028802e-17  6.1226278278660493e-17  6.1225846669417037e-17  6.1225417849401136e-17  6.1224987630609643e-17  6.1224555630477621e-17  6.1224114776624628e-17  6.1223641023045282e-17  6.1223047005424536e-17  6.1222025633707710e-17  6.1219512609454649e-17  4.7327255300318533e-01  5.0372677272035238e-01  5.4551452613109241e-01  5.7295507596723871e-01  5.9370668135046034e-01  6.0203532341572175e-01  5.9818177695096697e-01  5.8115921668454207e-01  5.5151955801524399e-01  5.1056636639412245e-01  4.6045380936403274e-01  4.0400513341417676e-01  3.4438425536674416e-01  2.8480324307552479e-01  2.2816819413601083e-01  1.7681800302919257e-01  1.3233978958675510e-01  9.5512932186765168e-02  6.6364662517054793e-02  4.4319147420225212e-02  2.8397683692526522e-02  1.7428095545796853e-02  1.0226151621377974e-02  5.7262719646074597e-03  3.0543210642002077e-03  1.5488555759739331e-03  7.4527759246003364e-04  3.3961171354487301e-04  1.4626585553118891e-04  5.9419877527020295e-05  2.2723718802661594e-05  8.1642638866691132e-06  2.7502979793276795e-06  8.6698198968072132e-07  2.5524740734345659e-07  7.0048889203708395e-08  1.7886090058823551e-08  4.2414170020108466e-09  9.3243800073556966e-10  1.8971551570341784e-10  3.5665740446606620e-11  6.1857587951283491e-12  9.8833479993697638e-13  1.4531223315429810e-13  1.9675643085441458e-14  2.4934792664510124e-15  3.3943327734006499e-16  9.2202122514776658e-17  6.6230983910278960e-17  6.3742175057765761e-17  6.3522125823359352e-17  6.3504664525438469e-17  6.3502744512909608e-17  6.3502269311013379e-17  6.3501780638358136e-17  6.3501335861129528e-17  6.3500878301767728e-17  6.3500426858454055e-17  6.3499973848670834e-17  6.3499522797775402e-17  6.3499075593174469e-17  6.3498643857159069e-17  6.3498267168261692e-17  6.3498083775703217e-17  6.3498568922680082e-17  4.2709323152590301e-01  4.6295572032673005e-01  5.1513584630768749e-01  5.5423968048552641e-01  5.8974316735818033e-01  6.1401970599691702e-01  6.2707188819027393e-01  6.2648821707354552e-01  6.1182777971937419e-01  5.8320946157199061e-01  5.4192160985436733e-01  4.9019489284604728e-01  4.3103259822368412e-01  3.6790867732422239e-01  3.0438004916574840e-01  2.4371550583752713e-01  1.8856664606770782e-01  1.4075639138465437e-01  1.0119973703358760e-01  6.9962614450346169e-02  4.6427491833415296e-02  2.9521240221030552e-02  1.7953631672778032e-02  1.0423605378362066e-02  5.7663826700041290e-03  3.0336427389873240e-03  1.5147525983216570e-03  7.1641239837421527e-04  3.2029138189708069e-04  1.3508145140145159e-04  5.3630888538072634e-05  2.0003174048137527e-05  6.9942524951144929e-06  2.2879007825675263e-06  6.9869326348198493e-07  1.9879202865948275e-07  5.2589453150802454e-08  1.2910119546452947e-08  2.9353815325058401e-09  6.1702705554242617e-10  1.1969848468183295e-10  2.1394358926854612e-11  3.5177489601835859e-12  5.3136146602647745e-13  7.3678118870478467e-14  9.4106185592346189e-15  1.1514137457332285e-15  1.8111218442978565e-16  7.6969986613258724e-17  6.6779255017975634e-17  6.5865821067092146e-17  6.5792172419203075e-17  6.5785824308533321e-17  6.5785107283574111e-17  6.5784549078350385e-17  6.5784090755141856e-17  6.5783606779088649e-17  6.5783135102811018e-17  6.5782659576380494e-17  6.5782185404656118e-17  6.5781708653307895e-17  6.5781224938441185e-17  6.5780715903021750e-17  6.5780119803830442e-17  6.5779225066725785e-17  3.7170691915839266e-01  4.1040184809965835e-01  4.6917704611823707e-01  5.1713536585050124e-01  5.6507493399997644e-01  6.0414822621514574e-01  6.3424238500462471e-01  6.5170851089704707e-01  6.5508276269236221e-01  6.4310851351845899e-01  6.1584749608955891e-01  5.7444394535289123e-01  5.2118948712973123e-01  4.5928951361079023e-01  3.9252949772051976e-01  3.2485475525181012e-01  2.5992834056647740e-01  2.0075373450838879e-01  1.4941585582084013e-01  1.0698189526423552e-01  7.3559872714138053e-02  4.8484704970254790e-02  3.0577157536836857e-02  1.8415926455737884e-02  1.0571832735636125e-02  5.7730433853353637e-03  2.9927945924095997e-03  1.4698371039232898e-03  6.8244549954562714e-04  2.9891238958268217e-04  1.2324045195956525e-04  4.7724315021375324e-05  1.7319568499784776e-05  5.8772455106213710e-06  1.8607107370713580e-06  5.4838904736232775e-07  1.5012613311651132e-07  3.8094236052823667e-08  8.9414772161186337e-09  1.9375800013178880e-09  3.8691162970763620e-10  7.1075569826628905e-11  1.1992135224704184e-11  1.8557410240233175e-12  2.6307271132719316e-13  3.4168649238199754e-14  4.1083530412182553e-15  5.0513100492286824e-16  1.1118676349079128e-16  7.1956829076785550e-17  6.8391711781610357e-17  6.8099099806083508e-17  6.8075792919913773e-17  6.8074046795564801e-17  6.8073340832342664e-17  6.8072876943056400e-17  6.8072364184094572e-17  6.8071875951877283e-17  6.8071380323160913e-17  6.8070888832924321e-17  6.8070397210133151e-17  6.8069909382229608e-17  6.8069432610451848e-17  6.8068994656843877e-17  6.8068689251719595e-17  3.1165659575971116e-01  3.5053454886358276e-01  4.1168956475411989e-01  4.6488588813337972e-01  5.2167401054551954e-01  5.7278546701426125e-01  6.1819462354791643e-01  6.5341259633632165e-01  6.7612819480010333e-01  6.8374857995775717e-01  6.7493240682819855e-01  6.4936250725398514e-01  6.0808403925837429e-01  5.5341245404772610e-01  4.8875284992907236e-01  4.1822752287587911e-01  3.4620030307081529e-01  2.7677257272120609e-01  2.1333770126898616e-01  1.5827354580197192e-01  1.1281595517208058e-01  7.7118342758366876e-02  5.0460456233963544e-02  3.1543526905353260e-02  1.8800606769963219e-02  1.0662286417420818e-02  5.7416499168197951e-03  2.9295292672397314e-03  1.4131088056463189e-03  6.4296373988703519e-04  2.7531022283516180e-04  1.1067588906056300e-04  4.1670752881479436e-05  1.4658879239778512e-05  4.8062393345976897e-06  1.4652166179339809e-06  4.1435420541381790e-07  1.0845112997322838e-07  2.6215361078455060e-08  5.8406456717855174e-09  1.1971147185449648e-09  2.2533760947621587e-10  3.8893329743865343e-11  6.1468101752213983e-12  8.8844036351930675e-13  1.1735283834599672e-13  1.4199618200590374e-14  1.6223611781005513e-15  2.2564412279278420e-16  8.4516937467959687e-17  7.1532937917352324e-17  7.0451626917224933e-17  7.0367390509078442e-17  7.0361695622580047e-17  7.0360603933435010e-17  7.0360142398467744e-17  7.0359594603553475e-17  7.0359094567910968e-17  7.0358579727372427e-17  7.0358072397594503e-17  7.0357562636538591e-17  7.0357052592871201e-17  7.0356537121191945e-17  7.0356004416682624e-17  7.0355412662679375e-17  2.5146061434449940e-01  2.8815187978209450e-01  3.4764318062247535e-01  4.0218761663563768e-01  4.6349510723086790e-01  5.2266824686485081e-01  5.7999454506104819e-01  6.3068014298885189e-01  6.7192292141362420e-01  7.0008329085835996e-01  7.1249802041647481e-01  7.0724679991576922e-01  6.8374755589214908e-01  6.4284749314326717e-01  5.8687756243996747e-01  5.1943833374613724e-01  4.4500840465583363e-01  3.6840916927950473e-01  2.9422483167453789e-01  2.2628272658014401e-01  1.6728616402478724e-01  1.1865740834113397e-01  8.0597381691168937e-02  5.2321185031703910e-02  3.2394903040654038e-02  1.9089763897053694e-02  1.0683142938338502e-02  5.6648273697124298e-03  2.8394908716000249e-03  1.3421447854209743e-03  5.9671438812456908e-04  2.4889446786395726e-04  9.7140204703902194e-05  3.5380570960492356e-05  1.1994141792401551e-05  3.7748068419374406e-06  1.1001867512191397e-06  2.9625464528069289e-07  7.3542549048324067e-08  1.6796101087698532e-08  3.5226827841405692e-09  6.7734642824763200e-10  1.1922664166815894e-10  1.9186111549054843e-11  2.8193568886342210e-12  3.7798212036749568e-13  4.6240078804632392e-14  5.2089738039487064e-15  5.9262796374926182e-16  1.2053836669066843e