<?xml version="1.0"?>
<VTKFile type="UnstructuredGrid"  version="0.1"  >
<UnstructuredGrid>
<Piece  NumberOfPoints="4225" NumberOfCells="8192">
<Points>
<DataArray  type="Float64"  NumberOfComponents="3"  format="ascii">0 0 0  0.015625 0 0  0.03125 0 0  0.046875 0 0  0.0625 0 0  0.078125 0 0  0.09375 0 0  0.109375 0 0  0.125 0 0  0.140625 0 0  0.15625 0 0  0.171875 0 0  0.1875 0 0  0.203125 0 0  0.21875 0 0  0.234375 0 0  0.25 0 0  0.265625 0 0  0.28125 0 0  0.296875 0 0  0.3125 0 0  0.328125 0 0  0.34375 0 0  0.359375 0 0  0.375 0 0  0.390625 0 0  0.40625 0 0  0.421875 0 0  0.4375 0 0  0.453125 0 0  0.46875 0 0  0.484375 0 0  0.5 0 0  0.515625 0 0  0.53125 0 0  0.546875 0 0  0.5625 0 0  0.578125 0 0  0.59375 0 0  0.609375 0 0  0.625 0 0  0.640625 0 0  0.65625 0 0  0.671875 0 0  0.6875 0 0  0.703125 0 0  0.71875 0 0  0.734375 0 0  0.75 0 0  0.765625 0 0  0.78125 0 0  0.796875 0 0  0.8125 0 0  0.828125 0 0  0.84375 0 0  0.859375 0 0  0.875 0 0  0.890625 0 0  0.90625 0 0  0.921875 0 0  0.9375 0 0  0.953125 0 0  0.96875 0 0  0.984375 0 0  1 0 0  0 0.015625 0  0.015625 0.015625 0  0.03125 0.015625 0  0.046875 0.015625 0  0.0625 0.015625 0  0.078125 0.015625 0  0.09375 0.015625 0  0.109375 0.015625 0  0.125 0.015625 0  0.140625 0.015625 0  0.15625 0.015625 0  0.171875 0.015625 0  0.1875 0.015625 0  0.203125 0.015625 0  0.21875 0.015625 0  0.234375 0.015625 0  0.25 0.015625 0  0.265625 0.015625 0  0.28125 0.015625 0  0.296875 0.015625 0  0.3125 0.015625 0  0.328125 0.015625 0  0.34375 0.015625 0  0.359375 0.015625 0  0.375 0.015625 0  0.390625 0.015625 0  0.40625 0.015625 0  0.421875 0.015625 0  0.4375 0.015625 0  0.453125 0.015625 0  0.46875 0.015625 0  0.484375 0.015625 0  0.5 0.015625 0  0.515625 0.015625 0  0.53125 0.015625 0  0.546875 0.015625 0  0.5625 0.015625 0  0.578125 0.015625 0  0.59375 0.015625 0  0.609375 0.015625 0  0.625 0.015625 0  0.640625 0.015625 0  0.65625 0.015625 0  0.671875 0.015625 0  0.6875 0.015625 0  0.703125 0.015625 0  0.71875 0.015625 0  0.734375 0.015625 0  0.75 0.015625 0  0.765625 0.015625 0  0.78125 0.015625 0  0.796875 0.015625 0  0.8125 0.015625 0  0.828125 0.015625 0  0.84375 0.015625 0  0.859375 0.015625 0  0.875 0.015625 0  0.890625 0.015625 0  0.90625 0.015625 0  0.921875 0.015625 0  0.9375 0.015625 0  0.953125 0.015625 0  0.96875 0.015625 0  0.984375 0.015625 0  1 0.015625 0  0 0.03125 0  0.015625 0.03125 0  0.03125 0.03125 0  0.046875 0.03125 0  0.0625 0.03125 0  0.078125 0.03125 0  0.09375 0.03125 0  0.109375 0.03125 0  0.125 0.03125 0  0.140625 0.03125 0  0.15625 0.03125 0  0.171875 0.03125 0  0.1875 0.03125 0  0.203125 0.03125 0  0.21875 0.03125 0  0.234375 0.03125 0  0.25 0.03125 0  0.265625 0.03125 0  0.28125 0.03125 0  0.296875 0.03125 0  0.3125 0.03125 0  0.328125 0.03125 0  0.34375 0.03125 0  0.359375 0.03125 0  0.375 0.03125 0  0.390625 0.03125 0  0.40625 0.03125 0  0.421875 0.03125 0  0.4375 0.03125 0  0.453125 0.03125 0  0.46875 0.03125 0  0.484375 0.03125 0  0.5 0.03125 0  0.515625 0.03125 0  0.53125 0.03125 0  0.546875 0.03125 0  0.5625 0.03125 0  0.578125 0.03125 0  0.59375 0.03125 0  0.609375 0.03125 0  0.625 0.03125 0  0.640625 0.03125 0  0.65625 0.03125 0  0.671875 0.03125 0  0.6875 0.03125 0  0.703125 0.03125 0  0.71875 0.03125 0  0.734375 0.03125 0  0.75 0.03125 0  0.765625 0.03125 0  0.78125 0.03125 0  0.796875 0.03125 0  0.8125 0.03125 0  0.828125 0.03125 0  0.84375 0.03125 0  0.859375 0.03125 0  0.875 0.03125 0  0.890625 0.03125 0  0.90625 0.03125 0  0.921875 0.03125 0  0.9375 0.03125 0  0.953125 0.03125 0  0.96875 0.03125 0  0.984375 0.03125 0  1 0.03125 0  0 0.046875 0  0.015625 0.046875 0  0.03125 0.046875 0  0.046875 0.046875 0  0.0625 0.046875 0  0.078125 0.046875 0  0.09375 0.046875 0  0.109375 0.046875 0  0.125 0.046875 0  0.140625 0.046875 0  0.15625 0.046875 0  0.171875 0.046875 0  0.1875 0.046875 0  0.203125 0.046875 0  0.21875 0.046875 0  0.234375 0.046875 0  0.25 0.046875 0  0.265625 0.046875 0  0.28125 0.046875 0  0.296875 0.046875 0  0.3125 0.046875 0  0.328125 0.046875 0  0.34375 0.046875 0  0.359375 0.046875 0  0.375 0.046875 0  0.390625 0.046875 0  0.40625 0.046875 0  0.421875 0.046875 0  0.4375 0.046875 0  0.453125 0.046875 0  0.46875 0.046875 0  0.484375 0.046875 0  0.5 0.046875 0  0.515625 0.046875 0  0.53125 0.046875 0  0.546875 0.046875 0  0.5625 0.046875 0  0.578125 0.046875 0  0.59375 0.046875 0  0.609375 0.046875 0  0.625 0.046875 0  0.640625 0.046875 0  0.65625 0.046875 0  0.671875 0.046875 0  0.6875 0.046875 0  0.703125 0.046875 0  0.71875 0.046875 0  0.734375 0.046875 0  0.75 0.046875 0  0.765625 0.046875 0  0.78125 0.046875 0  0.796875 0.046875 0  0.8125 0.046875 0  0.828125 0.046875 0  0.84375 0.046875 0  0.859375 0.046875 0  0.875 0.046875 0  0.890625 0.046875 0  0.90625 0.046875 0  0.921875 0.046875 0  0.9375 0.046875 0  0.953125 0.046875 0  0.96875 0.046875 0  0.984375 0.046875 0  1 0.046875 0  0 0.0625 0  0.015625 0.0625 0  0.03125 0.0625 0  0.046875 0.0625 0  0.0625 0.0625 0  0.078125 0.0625 0  0.09375 0.0625 0  0.109375 0.0625 0  0.125 0.0625 0  0.140625 0.0625 0  0.15625 0.0625 0  0.171875 0.0625 0  0.1875 0.0625 0  0.203125 0.0625 0  0.21875 0.0625 0  0.234375 0.0625 0  0.25 0.0625 0  0.265625 0.0625 0  0.28125 0.0625 0  0.296875 0.0625 0  0.3125 0.0625 0  0.328125 0.0625 0  0.34375 0.0625 0  0.359375 0.0625 0  0.375 0.0625 0  0.390625 0.0625 0  0.40625 0.0625 0  0.421875 0.0625 0  0.4375 0.0625 0  0.453125 0.0625 0  0.46875 0.0625 0  0.484375 0.0625 0  0.5 0.0625 0  0.515625 0.0625 0  0.53125 0.0625 0  0.546875 0.0625 0  0.5625 0.0625 0  0.578125 0.0625 0  0.59375 0.0625 0  0.609375 0.0625 0  0.625 0.0625 0  0.640625 0.0625 0  0.65625 0.0625 0  0.671875 0.0625 0  0.6875 0.0625 0  0.703125 0.0625 0  0.71875 0.0625 0  0.734375 0.0625 0  0.75 0.0625 0  0.765625 0.0625 0  0.78125 0.0625 0  0.796875 0.0625 0  0.8125 0.0625 0  0.828125 0.0625 0  0.84375 0.0625 0  0.859375 0.0625 0  0.875 0.0625 0  0.890625 0.0625 0  0.90625 0.0625 0  0.921875 0.0625 0  0.9375 0.0625 0  0.953125 0.0625 0  0.96875 0.0625 0  0.984375 0.0625 0  1 0.0625 0  0 0.078125 0  0.015625 0.078125 0  0.03125 0.078125 0  0.046875 0.078125 0  0.0625 0.078125 0  0.078125 0.078125 0  0.09375 0.078125 0  0.109375 0.078125 0  0.125 0.078125 0  0.140625 0.078125 0  0.15625 0.078125 0  0.171875 0.078125 0  0.1875 0.078125 0  0.203125 0.078125 0  0.21875 0.078125 0  0.234375 0.078125 0  0.25 0.078125 0  0.265625 0.078125 0  0.28125 0.078125 0  0.296875 0.078125 0  0.3125 0.078125 0  0.328125 0.078125 0  0.34375 0.078125 0  0.359375 0.078125 0  0.375 0.078125 0  0.390625 0.078125 0  0.40625 0.078125 0  0.421875 0.078125 0  0.4375 0.078125 0  0.453125 0.078125 0  0.46875 0.078125 0  0.484375 0.078125 0  0.5 0.078125 0  0.515625 0.078125 0  0.53125 0.078125 0  0.546875 0.078125 0  0.5625 0.078125 0  0.578125 0.078125 0  0.59375 0.078125 0  0.609375 0.078125 0  0.625 0.078125 0  0.640625 0.078125 0  0.65625 0.078125 0  0.671875 0.078125 0  0.6875 0.078125 0  0.703125 0.078125 0  0.71875 0.078125 0  0.734375 0.078125 0  0.75 0.078125 0  0.765625 0.078125 0  0.78125 0.078125 0  0.796875 0.078125 0  0.8125 0.078125 0  0.828125 0.078125 0  0.84375 0.078125 0  0.859375 0.078125 0  0.875 0.078125 0  0.890625 0.078125 0  0.90625 0.078125 0  0.921875 0.078125 0  0.9375 0.078125 0  0.953125 0.078125 0  0.96875 0.078125 0  0.984375 0.078125 0  1 0.078125 0  0 0.09375 0  0.015625 0.09375 0  0.03125 0.09375 0  0.046875 0.09375 0  0.0625 0.09375 0  0.078125 0.09375 0  0.09375 0.09375 0  0.109375 0.09375 0  0.125 0.09375 0  0.140625 0.09375 0  0.15625 0.09375 0  0.171875 0.09375 0  0.1875 0.09375 0  0.203125 0.09375 0  0.21875 0.09375 0  0.234375 0.09375 0  0.25 0.09375 0  0.265625 0.09375 0  0.28125 0.09375 0  0.296875 0.09375 0  0.3125 0.09375 0  0.328125 0.09375 0  0.34375 0.09375 0  0.359375 0.09375 0  0.375 0.09375 0  0.390625 0.09375 0  0.40625 0.09375 0  0.421875 0.09375 0  0.4375 0.09375 0  0.453125 0.09375 0  0.46875 0.09375 0  0.484375 0.09375 0  0.5 0.09375 0  0.515625 0.09375 0  0.53125 0.09375 0  0.546875 0.09375 0  0.5625 0.09375 0  0.578125 0.09375 0  0.59375 0.09375 0  0.609375 0.09375 0  0.625 0.09375 0  0.640625 0.09375 0  0.65625 0.09375 0  0.671875 0.09375 0  0.6875 0.09375 0  0.703125 0.09375 0  0.71875 0.09375 0  0.734375 0.09375 0  0.75 0.09375 0  0.765625 0.09375 0  0.78125 0.09375 0  0.796875 0.09375 0  0.8125 0.09375 0  0.828125 0.09375 0  0.84375 0.09375 0  0.859375 0.09375 0  0.875 0.09375 0  0.890625 0.09375 0  0.90625 0.09375 0  0.921875 0.09375 0  0.9375 0.09375 0  0.953125 0.09375 0  0.96875 0.09375 0  0.984375 0.09375 0  1 0.09375 0  0 0.109375 0  0.015625 0.109375 0  0.03125 0.109375 0  0.046875 0.109375 0  0.0625 0.109375 0  0.078125 0.109375 0  0.09375 0.109375 0  0.109375 0.109375 0  0.125 0.109375 0  0.140625 0.109375 0  0.15625 0.109375 0  0.171875 0.109375 0  0.1875 0.109375 0  0.203125 0.109375 0  0.21875 0.109375 0  0.234375 0.109375 0  0.25 0.109375 0  0.265625 0.109375 0  0.28125 0.109375 0  0.296875 0.109375 0  0.3125 0.109375 0  0.328125 0.109375 0  0.34375 0.109375 0  0.359375 0.109375 0  0.375 0.109375 0  0.390625 0.109375 0  0.40625 0.109375 0  0.421875 0.109375 0  0.4375 0.109375 0  0.453125 0.109375 0  0.46875 0.109375 0  0.484375 0.109375 0  0.5 0.109375 0  0.515625 0.109375 0  0.53125 0.109375 0  0.546875 0.109375 0  0.5625 0.109375 0  0.578125 0.109375 0  0.59375 0.109375 0  0.609375 0.109375 0  0.625 0.109375 0  0.640625 0.109375 0  0.65625 0.109375 0  0.671875 0.109375 0  0.6875 0.109375 0  0.703125 0.109375 0  0.71875 0.109375 0  0.734375 0.109375 0  0.75 0.109375 0  0.765625 0.109375 0  0.78125 0.109375 0  0.796875 0.109375 0  0.8125 0.109375 0  0.828125 0.109375 0  0.84375 0.109375 0  0.859375 0.109375 0  0.875 0.109375 0  0.890625 0.109375 0  0.90625 0.109375 0  0.921875 0.109375 0  0.9375 0.109375 0  0.953125 0.109375 0  0.96875 0.109375 0  0.984375 0.109375 0  1 0.109375 0  0 0.125 0  0.015625 0.125 0  0.03125 0.125 0  0.046875 0.125 0  0.0625 0.125 0  0.078125 0.125 0  0.09375 0.125 0  0.109375 0.125 0  0.125 0.12
[...]
<PointData  Scalars="f_14"> 
<DataArray  type="Float64"  Name="f_14"  format="ascii">-2.7607421084995120e-15  -2.7678195066257017e-15  -2.7764966802282157e-15  -2.7848412739705549e-15  -2.7925497524235732e-15  -2.7998213430396451e-15  -2.8065942629029250e-15  -2.8128364355190449e-15  -2.8184978696136703e-15  -2.8234892652860356e-15  -2.8276554797419856e-15  -2.8307072984899556e-15  -2.8320870709637036e-15  -2.8307129125737317e-15  -2.8245258174520153e-15  -2.8097672277321255e-15  -2.7799979338279221e-15  -2.7251063878913524e-15  -2.6309646815883028e-15  -2.4807935158639305e-15  -2.2592365237708264e-15  -1.9590934070512409e-15  -1.5886324424575710e-15  -1.1755081693872507e-15  -7.6341868026974490e-16  -4.0080081808024474e-16  -1.2570566544803618e-16  4.5920534972963467e-17  1.2275647374201038e-16  1.3090771184264554e-16  1.0177530047229862e-16  6.1452503951126323e-17  2.5676826819486324e-17  3.7265397140774065e-19  -1.4804409247696582e-17  -2.2726950806253968e-17  -2.6373221715388910e-17  -2.7862552565970454e-17  -2.8403423341563479e-17  -2.8577198868551625e-17  -2.8625459508710814e-17  -2.8635977800523845e-17  -2.8636780150704550e-17  -2.8635698609191681e-17  -2.8634588720993630e-17  -2.8633763580694114e-17  -2.8633201926136478e-17  -2.8632834645478129e-17  -2.8632601433496124e-17  -2.8632457526034515e-17  -2.8632371397236901e-17  -2.8632321546512622e-17  -2.8632293742750543e-17  -2.8632278862597789e-17  -2.8632271259551134e-17  -2.8632267573321910e-17  -2.8632265890250888e-17  -2.8632265173462496e-17  -2.8632264892243611e-17  -2.8632264792292296e-17  -2.8632264760859659e-17  -2.8632264752416499e-17  -2.8632264750586767e-17  -2.8632264750298587e-17  -2.8632264750272110e-17  -2.7608186484427590e-15  -2.7673654105374311e-15  -2.7766442626950606e-15  -2.7848154504153382e-15  -2.7925349521043227e-15  -2.7997997100307682e-15  -2.8065434608575673e-15  -2.8127310961702709e-15  -2.8182739448862100e-15  -2.8230077071747792e-15  -2.8266076524409388e-15  -2.8283971112307608e-15  -2.8269210913643286e-15  -2.8190196626021108e-15  -2.7979472477232651e-15  -2.7499653304441686e-15  -2.6491718731204849e-15  -2.4517265908498982e-15  -2.0933892463100558e-15  -1.4972760389140125e-15  -5.9859446080736789e-16  6.1422045895397435e-16  2.0570398926603526e-15  3.5342938379856143e-15  4.7750701115990547e-15  5.5202688859093849e-15  5.6239383620308995e-15  5.1138302725487532e-15  4.1754983544482679e-15  3.0701377806509036e-15  2.0344002568146550e-15  1.2132551066450690e-15  6.4773012147136724e-16  3.0474815452177483e-16  1.2010607083791815e-16  3.1431072629385093e-17  -6.6856108951675741e-18  -2.1382588439400533e-17  -2.6472598782713217e-17  -2.8056419753315612e-17  -2.8498320570479186e-17  -2.8607879544293301e-17  -2.8631152978851214e-17  -2.8634672322971052e-17  -2.8634414101083449e-17  -2.8633732645946505e-17  -2.8633194016344637e-17  -2.8632830967619768e-17  -2.8632599119384066e-17  -2.8632455992126496e-17  -2.8632370396869951e-17  -2.8632320914088597e-17  -2.8632293357324081e-17  -2.8632278637216531e-17  -2.8632271133774658e-17  -2.8632267506775262e-17  -2.8632265857145052e-17  -2.8632265158141758e-17  -2.8632264885742288e-17  -2.8632264789813190e-17  -2.8632264760035386e-17  -2.8632264752188445e-17  -2.8632264750537827e-17  -2.8632264750290088e-17  -2.8632264750268912e-17  -2.7606719917407415e-15  -2.7671472956781996e-15  -2.7767798470280495e-15  -2.7847579082489078e-15  -2.7925185310450365e-15  -2.7997467501659353e-15  -2.8064310057944326e-15  -2.8124905010861597e-15  -2.8177436571072641e-15  -2.8217950617778530e-15  -2.8236753483532791e-15  -2.8208135731392455e-15  -2.8061486039093689e-15  -2.7606306885490974e-15  -2.6359070632716811e-15  -2.3199779332270362e-15  -1.5814148636060210e-15  -2.6104636252754742e-18  3.0563481669024923e-15  8.3862486510605568e-15  1.6671254613353170e-14  2.8046091948994353e-14  4.1630414656219475e-14  5.5350614366623972e-14  6.6330489726595849e-14  7.1844806375973776e-14  7.0426794966199808e-14  6.2518839235633379e-14  5.0273010176014019e-14  3.6622374632225613e-14  2.4166916910983698e-14  1.4443172007665970e-14  7.8133410193843507e-15  3.8209348440412353e-15  1.6831285931111393e-15  6.6076878130766505e-16  2.2281098334525961e-16  5.4403477228355750e-17  -3.8121985553508325e-18  -2.1922282813843041e-17  -2.6995216304818206e-17  -2.8274513277404336e-17  -2.8564237345854358e-17  -2.8622512508888454e-17  -2.8632409797641857e-17  -2.8633429729721427e-17  -2.8633149542980327e-17  -2.8632822846033343e-17  -2.8632596318034819e-17  -2.8632454410964370e-17  -2.8632369393330978e-17  -2.8632320282343201e-17  -2.8632292972728370e-17  -2.8632278412507326e-17  -2.8632271008502024e-17  -2.8632267440584785e-17  -2.8632265824276176e-17  -2.8632265142967809e-17  -2.8632264879324048e-17  -2.8632264787375086e-17  -2.8632264759225836e-17  -2.8632264751959885e-17  -2.8632264750480290e-17  -2.8632264750269454e-17  -2.8632264750252377e-17  -2.7605539097920053e-15  -2.7670679735084863e-15  -2.7768630003093248e-15  -2.7846833420054729e-15  -2.7924798170412210e-15  -2.7996249263009553e-15  -2.8061725826531332e-15  -2.8118969093216320e-15  -2.8162638103474201e-15  -2.8176333435591623e-15  -2.8104927488024491e-15  -2.7761230556009322e-15  -2.6540449148003527e-15  -2.2646141251782254e-15  -1.1265859310719411e-15  1.9078609363273618e-15  9.2472627743645676e-15  2.5270749383818434e-14  5.6708743870843412e-14  1.1187789624064243e-13  1.9794606184332419e-13  3.1625262579499170e-13  4.5742029132416921e-13  5.9953638171806267e-13  7.1234389422752797e-13  7.6732817142772407e-13  7.4934979319974972e-13  6.6339623875245700e-13  5.3236437331498631e-13  3.8721254421712948e-13  2.5523872705404163e-13  1.5245659738139876e-13  8.2505116125421023e-14  4.0443632722146337e-14  1.7949910984462030e-14  7.2052118464380286e-15  2.6073664548217883e-15  8.4117341920493726e-16  2.3122331027455439e-16  4.1640430297174787e-17  -1.1435888457078714e-17  -2.4827569416152878e-17  -2.7873249893012488e-17  -2.8497183946100439e-17  -2.8611841594291907e-17  -2.8630372598650948e-17  -2.8632735540530842e-17  -2.8632769895848966e-17  -2.8632588600984069e-17  -2.8632452343497045e-17  -2.8632368347207685e-17  -2.8632319648041829e-17  -2.8632292588692442e-17  -2.8632278188433284e-17  -2.8632270883718823e-17  -2.8632267374743403e-17  -2.8632265791639712e-17  -2.8632265127936206e-17  -2.8632264872982007e-17  -2.8632264784966688e-17  -2.8632264758414844e-17  -2.8632264751710370e-17  -2.8632264750390957e-17  -2.8632264750212330e-17  -2.8632264750197464e-17  -2.7604937929416100e-15  -2.7670455868243843e-15  -2.7768875005958512e-15  -2.7845883412771749e-15  -2.7923741281988196e-15  -2.7993402639428019e-15  -2.8054999931576681e-15  -2.8100112865917354e-15  -2.8099311725915115e-15  -2.7932758979671467e-15  -2.7127037751008419e-15  -2.3942262300850677e-15  -1.2559228957512983e-15  2.4536693894001928e-15  1.3442087941855510e-14  4.2923969046570505e-14  1.1435518784842182e-13  2.7020013039882890e-13  5.7539181066171243e-13  1.1096408872452350e-12  1.9408266257951322e-12  3.0800069229135465e-12  4.4349812075063256e-12  5.7938298222877233e-12  6.8661606043116028e-12  7.3802704492524104e-12  7.1941061932563133e-12  6.3586606010718486e-12  5.0954041838174814e-12  3.7013261065062575e-12  2.4369363931137524e-12  1.4540575751553736e-12  7.8615961600169296e-13  3.8509589722077114e-13  1.7087676670773138e-13  6.8667260175190823e-14  2.4978563381903384e-14  8.2145614228429045e-15  2.4314929084098574e-15  6.3600045055591827e-16  1.3388266766749692e-16  7.3255209612147266e-18  -2.1436195882335152e-17  -2.7331316696449450e-17  -2.8420833268298740e-17  -2.8602066247872439e-17  -2.8628939127765947e-17  -2.8632307260856317e-17  -2.8632536023914827e-17  -2.8632445836528645e-17  -2.8632366904841377e-17  -2.8632318982538900e-17  -2.8632292203101163e-17  -2.8632277964835560e-17  -2.8632270759406146e-17  -2.8632267309242100e-17  -2.8632265759226601e-17  -2.8632265113032657e-17  -2.8632264866693448e-17  -2.8632264782555380e-17  -2.8632264757560563e-17  -2.8632264751391541e-17  -2.8632264750218055e-17  -2.8632264750065330e-17  -2.8632264750050003e-17  -2.7604661953461928e-15  -2.7670284557978056e-15  -2.7768492639093378e-15  -2.7844334016081659e-15  -2.7920903375763100e-15  -2.7985652218612890e-15  -2.8030729800972936e-15  -2.8003841561367407e-15  -2.7667528266719632e-15  -2.5970005579450028e-15  -1.8626320883795772e-15  1.0218838762324067e-15  1.1346539634525637e-14  4.4942230300364670e-14  1.4407648793296480e-13  4.0876862725967083e-13  1.0468550426705877e-12  2.4322048189884480e-12  5.1327156022591093e-12  9.8399298062951433e-12  1.7134243162124925e-11  2.7093258579152758e-11  3.8893031484079600e-11  5.0674842355626899e-11  5.9913712840233420e-11  6.4266365897816011e-11  6.2529055527675231e-11  5.5175077132364885e-11  4.4146230290999935e-11  3.2023132324790201e-11  2.1056478713352992e-11  1.2548538269783566e-11  6.7767329226586879e-12  3.3159017424309220e-12  1.4698392961934858e-12  5.9013837106382543e-13  2.1457071316701067e-13  7.0630931793820493e-14  2.1035031794322545e-14  5.6552847309268356e-15  1.3595348463132279e-15  2.7815891480545765e-16  3.2711238539848045e-17  -1.7538059566698243e-17  -2.6818746021856824e-17  -2.8365038538001297e-17  -2.8597225719126654e-17  -2.8628468613858109e-17  -2.8632114362835023e-17  -2.8632402855725696e-17  -2.8632362205248763e-17  -2.8632318054891871e-17  -2.8632291799072091e-17  -2.8632277740589251e-17  -2.8632270635482292e-17  -2.8632267244061106e-17  -2.8632265727010717e-17  -2.8632265098216568e-17  -2.8632264860399632e-17  -2.8632264780064706e-17  -2.8632264756572884e-17  -2.8632264750905264e-17  -2.8632264749860122e-17  -2.8632264749725818e-17  -2.8632264749707113e-17  -2.7604343433678103e-15  -2.7669766562703809e-15  -2.7767178013928699e-15  -2.7841037599660310e-15  -2.7912389041848319e-15  -2.7954947780649225e-15  -2.7891761173295851e-15  -2.7304073536939660e-15  -2.4171392352090010e-15  -9.5007490941514797e-16  5.3111414341583520e-15  2.9702763256309217e-14  1.1625865554094219e-13  3.9546390322048604e-13  1.2125792618379623e-12  3.3779216597752694e-12  8.5625621059302434e-12  1.9750782272269961e-11  4.1441909620917664e-11  7.9065617102287553e-11  1.3710415155246038e-10  2.1600578273129502e-10  3.0908953117478402e-10  4.0158189340727395e-10  4.7360288042264877e-10  5.0686846203400631e-10  4.9217138154582356e-10  4.3349539972329028e-10  3.4626817414055347e-10  2.5079461795750456e-10  1.6467306541435797e-10  9.8005264458722197e-11  5.2859642152850375e-11  2.5832923242805117e-11  1.1437322645321053e-11  4.5867322379021680e-12  1.6658496938556073e-12  5.4782456423999279e-13  1.6308716120417350e-13  4.3932210851643033e-14  1.0694013100949760e-14  2.3380079716011059e-15  4.4395901623014067e-16  5.6734355318698035e-17  -1.4686429391102965e-17  -2.6572810504406025e-17  -2.8357824742682740e-17  -2.8599553772249802e-17  -2.8628955561268796e-17  -2.8632089802394524e-17  -2.8632333419481155e-17  -2.8632315186344259e-17  -2.8632291254316896e-17  -2.8632277507615151e-17  -2.8632270511442315e-17  -2.8632267179131278e-17  -2.8632265694924047e-17  -2.8632265083390531e-17  -2.8632264853972043e-17  -2.8632264777340184e-17  -2.8632264755280360e-17  -2.8632264750071746e-17  -2.8632264749134499e-17  -2.8632264749010377e-17  -2.8632264748984307e-17  -2.7603661250970049e-15  -2.7668489558827864e-15  -2.7763879435460380e-15  -2.7831470246898980e-15  -2.7875224760435655e-15  -2.7767816134945302e-15  -2.6865056772795863e-15  -2.1778696127043297e-15  3.7497818015765559e-16  1.2099340415226184e-14  6.1400012721695426e-14  2.5083473669878623e-13  9.1463811279904028e-13  3.0318210094021142e-12  9.1662411580418473e-12  2.5279745293625078e-11  6.3563353482803444e-11  1.4561362848190532e-10  3.0372286798690396e-10  5.7647085364915767e-10  9.9511331628884859e-10  1.5615610982451817e-09  2.2266651066118976e-09  2.8840176808044502e-09  3.3918939868283970e-09  3.6212314452267505e-09  3.5084885624925032e-09  3.0840645484226720e-09  2.4590323276038176e-09  1.7780604893493078e-09  1.1656803231030215e-09  6.9274916248685574e-10  3.7312299285742050e-10  1.8210649014547996e-10  8.0522210102235239e-11  3.2251006416387499e-11  1.1698475996939499e-11  3.8423317718929829e-12  1.1425074456453005e-12  3.0748894039675286e-13  7.4878595471518268e-14  1.6481813994783242e-14  3.2637114255003406e-15  5.6524308614168499e-16  6.8254039205310460e-17  -1.4339102223794739e-17  -2.6726191871522236e-17  -2.8402802163984165e-17  -2.8607505199969932e-17  -2.8629974680880503e-17  -2.8632144152767620e-17  -2.8632299400653764e-17  -2.8632289770368504e-17  -2.8632277213386119e-17  -2.8632270384098274e-17  -2.8632267114182609e-17  -2.8632265662807430e-17  -2.8632265068351761e-17  -2.8632264847162404e-17  -2.8632264774100498e-17  -2.8632264753383218e-17  -2.8632264748583917e-17  -2.8632264747732169e-17  -2.8632264747609156e-17  -2.8632264747570484e-17  -2.7602113379356765e-15  -2.7665083493211307e-15  -2.7753427486286329e-15  -2.7788022794075521e-15  -2.7640112228549471e-15  -2.6390551294821830e-15  -1.9006830735389746e-15  2.0292825243331960e-15  2.1252982555122199e-14  1.0769871232973857e-13  4.6437011966915431e-13  1.8118509701348108e-12  6.4636573105740356e-12  2.1107927639568580e-11  6.3057894172636613e-11  1.7215847244926102e-10  4.2912170103185610e-10  9.7565799840574182e-10  2.0217260125691668e-09  3.8153709520183436e-09  6.5532952630631686e-09  1.0238644740776948e-08  1.4543360848409926e-08  1.8772888622152284e-08  2.2012378629386594e-08  2.3437741903323115e-08  2.2653526754564911e-08  1.9870002154099711e-08  1.5811862601441510e-08  1.1412491931163599e-08  7.4694093948181506e-09  4.4320197452800182e-09  2.3835938759851138e-09  1.1616807414618795e-09  5.1295194875689744e-10  2.0517076578634074e-10  7.4322195327317245e-11  2.4378266837100267e-11  7.2391360707543650e-12  1.9457576847190526e-12  4.7328276478662545e-13  1.0414803565846303e-13  2.0715524147729480e-14  3.7078007144686682e-15  5.8005389141067876e-16  6.1037541380450366e-17  -1.6688239702182168e-17  -2.7194197056204271e-17  -2.8475944902914425e-17  -2.8617027621007481e-17  -2.8630991640846241e-17  -2.8632206185990846e-17  -2.8632282660946827e-17  -2.8632276550078121e-17  -2.8632270235036639e-17  -2.8632267048012728e-17  -2.8632265630310946e-17  -2.8632265052720340e-17  -2.8632264839533318e-17  -2.8632264769871051e-17  -2.8632264750389182e-17  -2.8632264745943902e-17  -2.8632264745154024e-17  -2.8632264745021933e-17  -2.8632264744963841e-17  -2.7597588500638858e-15  -2.7654112461831275e-15  -2.7704802333949212e-15  -2.7508572520504262e-15  -2.5919340699215998e-15  -1.6120004340301751e-15  3.8543662501187057e-15  3.2011530412542948e-14  1.6596058479087948e-13  7.5344747483339413e-13  3.1241863261203642e-12  1.1907592987348606e-11  4.1717553512635803e-11  1.3418093604673495e-10  3.9566317540618273e-10  1.0681431675129289e-09  2.6366720236723730e-09  5.9444762609705223e-09  1.2228237688537697e-08  2.2930816584652147e-08  3.9168699883919020e-08  6.0900703493437262e-08  8.6139885813116566e-08  1.1077743593105033e-07  1.2946606881056459e-07  1.3744634641846496e-07  1.3250026579387502e-07  1.1594605605515836e-07  9.2068954255260599e-08  6.6322576848062531e-08  4.3329348552263783e-08  2.5666355446041489e-08  1.3781673059237875e-08  6.7064774071714869e-09  2.9569551680290688e-09  1.1810248882684543e-09  4.2721516296453275e-10  1.3993284585566353e-10  4.1494736858628776e-11  1.1137416318403978e-11  2.7052889981947134e-12  5.9456076127368200e-13  1.1819726466700984e-13  2.1235134136322809e-14  3.4302927730394979e-15  4.8018596718016823e-16  3.9047127349168027e-17  -2.0493300284589921e-17  -2.7747587364967435e-17  -2.8545454702972787e-17  -2.8624632870272421e-17  -2.8631695018690197e-17  -2.8632245220579332e-17  -2.8632273897150440e-17  -2.8632269967871896e-17  -2.8632266975039686e-17  -2.8632265596636088e-17  -2.8632265035835826e-17  -2.8632264830365867e-17  -2.8632264763895282e-17  -2.8632264745526952e-17  -2.8632264741376958e-17  -2.8632264740624533e-17  -2.8632264740471802e-17  -2.8632264740385569e-17  -2.7584141258176530e-15  -2.7601922773046614e-15  -2.7384826474114269e-15  -2.5463147242231346e-15  -1.3296430412292162e-15  5.7073090115533494e-15  4.3426075029147796e-14  2.3100017817133042e-13  1.0953579921598607e-12  4.7797446703323433e-12  1.9277039681839564e-11  7.1811999538110592e-11  2.4670124518279740e-10  7.8015125993805903e-10  2.2669830574295507e-09  6.0430426748421928e-09  1.4754966856648804e-08  3.2953350243804878e-08  6.7237125096814581e-08  1.2519836589906465e-07  2.1254787210316305e-07  3.2871744385646395e-07  4.6278612521268913e-07  5.9272265926014255e-07  6.9022571057484861e-07  7.3043512614154362e-07  7.0214839857026359e-07  6.1285567684969362e-07  4.8552437809304559e-07  3.4901351924469223e-07  2.2757142463439218e-07  1.3455890613106669e-07  7.2128830377195526e-08  3.5042557885355794e-08  1.5426494415707558e-08  6.1520798095277261e-09  2.2220965406579245e-09  7.2677031464453260e-10  2.1519682274257320e-10  5.7675888947795249e-11  1.3989177395500226e-11  3.0701010687872526e-12  6.0953102944128944e-13  1.0944471595507338e-13  1.7753207929857675e-14  2.5833576415548250e-15  3.1830425925317585e-16  1.3033046874596075e-17  -2.4108483820347954e-17  -2.8188337443200196e-17  -2.8592949451011659e-17  -2.8629153324190048e-17  -2.8632060593117196e-17  -2.8632261598360818e-17  -2.8632269128531295e-17  -2.8632266870213119e-17  -2.8632265559679859e-17  -2.8632265016601678e-17  -2.8632264818538518e-17  -2.8632264755019303e-17  -2.8632264737631933e-17  -2.8632264733716946e-17  -2.8632264732976871e-17  -2.8632264732790035e-17  -2.8632264732664230e-17  -2.7512173249057432e-15  -2.7244551930454072e-15  -2.5030334004392935e-15  -1.0569259066997848e-15  7.5258950639528412e-15  5.4885256621341757e-14  2.9819572198736089e-13  1.4617602750098009e-12  6.6360150529652577e-12  2.7997486347501716e-11  1.0969788728692760e-10  3.9846406962054188e-10  1.3390599655980943e-09  4.1543671829333746e-09  1.1873956013623016e-08  3.1204175507068881e-08  7.5260217055552411e-08  1.6631784623054455e-07  3.3627612657550099e-07  6.2126253832464024e-07  1.0475712913606951e-06  1.6106111396283974e-06  2.2559028826258730e-06  2.8763632284816336e-06  3.3363531570429490e-06  3.5184446286360241e-06  3.3717395007388571e-06  2.9348105691727591e-06  2.3192474120244706e-06  1.6633736540681779e-06  1.0823229134407576e-06  6.3871659521851859e-07  3.4175387614816425e-07  1.6574875694508850e-07  7.2845603461720060e-08  2.9004372122902001e-08  1.0459890308403669e-08  3.4158296811398826e-09  1.0098989725264112e-09  2.7026201132998174e-10  6.5453947197766866e-11  1.4343484206522029e-11  2.8436121745861636e-12  5.0992636002860006e-13  8.2684102185396652e-14  1.2103843917811070e-14  1.5806188796804226e-15  1.6437049213170794e-16  -7.7036183649738888e-18  -2.6580541119340682e-17  -2.8450482401185660e-17  -2.8617739379582324e-17  -2.8631233538757529e-17  -2.8632207240223943e-17  -2.8632265797873082e-17  -2.8632266629613711e-17  -2.8632265513009776e-17  -2.8632264993199595e-17  -2.8632264802370672e-17  -2.8632264741542268e-17  -2.8632264724997506e-17  -2.8632264721257159e-17  -2.8632264720503366e-17  -2.8632264720266325e-17  -2.8632264720086496e-17  -2.7006002993828860e-15  -2.4603454400948671e-15  -7.8948362796382931e-16  9.3279037116205239e-15  6.6310797451396584e-14  3.6574220632388335e-13  1.8350082560642659e-12  8.5675540880874450e-12  3.7356691752402752e-11  1.5207394109080162e-10  5.7716515157096238e-10  2.0382270264763087e-09  6.6823668856191468e-09  2.0290547044832363e-08  5.6924879860297774e-08  1.4721619157865934e-07  3.5020551282208516e-07  7.6481638176539834e-07  1.5307372007829994e-06  2.8033939851198071e-06  4.6916034157795154e-06  7.1663942702677110e-06  9.9810714537719085e-06  1.2663768327834058e-05  1.4625796125224128e-05  1.5365615738006588e-05  1.4675487090838922e-05  1.2735463630595046e-05  1.0037111383284905e-05  7.1810333186879020e-06  4.6620702259286502e-06  2.7455414713434405e-06  1.46618962