<?xml version="1.0"?>
<VTKFile type="UnstructuredGrid"  version="0.1"  >
<UnstructuredGrid>
<Piece  NumberOfPoints="4225" NumberOfCells="8192">
<Points>
<DataArray  type="Float64"  NumberOfComponents="3"  format="ascii">0 0 0  0.015625 0 0  0.03125 0 0  0.046875 0 0  0.0625 0 0  0.078125 0 0  0.09375 0 0  0.109375 0 0  0.125 0 0  0.140625 0 0  0.15625 0 0  0.171875 0 0  0.1875 0 0  0.203125 0 0  0.21875 0 0  0.234375 0 0  0.25 0 0  0.265625 0 0  0.28125 0 0  0.296875 0 0  0.3125 0 0  0.328125 0 0  0.34375 0 0  0.359375 0 0  0.375 0 0  0.390625 0 0  0.40625 0 0  0.421875 0 0  0.4375 0 0  0.453125 0 0  0.46875 0 0  0.484375 0 0  0.5 0 0  0.515625 0 0  0.53125 0 0  0.546875 0 0  0.5625 0 0  0.578125 0 0  0.59375 0 0  0.609375 0 0  0.625 0 0  0.640625 0 0  0.65625 0 0  0.671875 0 0  0.6875 0 0  0.703125 0 0  0.71875 0 0  0.734375 0 0  0.75 0 0  0.765625 0 0  0.78125 0 0  0.796875 0 0  0.8125 0 0  0.828125 0 0  0.84375 0 0  0.859375 0 0  0.875 0 0  0.890625 0 0  0.90625 0 0  0.921875 0 0  0.9375 0 0  0.953125 0 0  0.96875 0 0  0.984375 0 0  1 0 0  0 0.015625 0  0.015625 0.015625 0  0.03125 0.015625 0  0.046875 0.015625 0  0.0625 0.015625 0  0.078125 0.015625 0  0.09375 0.015625 0  0.109375 0.015625 0  0.125 0.015625 0  0.140625 0.015625 0  0.15625 0.015625 0  0.171875 0.015625 0  0.1875 0.015625 0  0.203125 0.015625 0  0.21875 0.015625 0  0.234375 0.015625 0  0.25 0.015625 0  0.265625 0.015625 0  0.28125 0.015625 0  0.296875 0.015625 0  0.3125 0.015625 0  0.328125 0.015625 0  0.34375 0.015625 0  0.359375 0.015625 0  0.375 0.015625 0  0.390625 0.015625 0  0.40625 0.015625 0  0.421875 0.015625 0  0.4375 0.015625 0  0.453125 0.015625 0  0.46875 0.015625 0  0.484375 0.015625 0  0.5 0.015625 0  0.515625 0.015625 0  0.53125 0.015625 0  0.546875 0.015625 0  0.5625 0.015625 0  0.578125 0.015625 0  0.59375 0.015625 0  0.609375 0.015625 0  0.625 0.015625 0  0.640625 0.015625 0  0.65625 0.015625 0  0.671875 0.015625 0  0.6875 0.015625 0  0.703125 0.015625 0  0.71875 0.015625 0  0.734375 0.015625 0  0.75 0.015625 0  0.765625 0.015625 0  0.78125 0.015625 0  0.796875 0.015625 0  0.8125 0.015625 0  0.828125 0.015625 0  0.84375 0.015625 0  0.859375 0.015625 0  0.875 0.015625 0  0.890625 0.015625 0  0.90625 0.015625 0  0.921875 0.015625 0  0.9375 0.015625 0  0.953125 0.015625 0  0.96875 0.015625 0  0.984375 0.015625 0  1 0.015625 0  0 0.03125 0  0.015625 0.03125 0  0.03125 0.03125 0  0.046875 0.03125 0  0.0625 0.03125 0  0.078125 0.03125 0  0.09375 0.03125 0  0.109375 0.03125 0  0.125 0.03125 0  0.140625 0.03125 0  0.15625 0.03125 0  0.171875 0.03125 0  0.1875 0.03125 0  0.203125 0.03125 0  0.21875 0.03125 0  0.234375 0.03125 0  0.25 0.03125 0  0.265625 0.03125 0  0.28125 0.03125 0  0.296875 0.03125 0  0.3125 0.03125 0  0.328125 0.03125 0  0.34375 0.03125 0  0.359375 0.03125 0  0.375 0.03125 0  0.390625 0.03125 0  0.40625 0.03125 0  0.421875 0.03125 0  0.4375 0.03125 0  0.453125 0.03125 0  0.46875 0.03125 0  0.484375 0.03125 0  0.5 0.03125 0  0.515625 0.03125 0  0.53125 0.03125 0  0.546875 0.03125 0  0.5625 0.03125 0  0.578125 0.03125 0  0.59375 0.03125 0  0.609375 0.03125 0  0.625 0.03125 0  0.640625 0.03125 0  0.65625 0.03125 0  0.671875 0.03125 0  0.6875 0.03125 0  0.703125 0.03125 0  0.71875 0.03125 0  0.734375 0.03125 0  0.75 0.03125 0  0.765625 0.03125 0  0.78125 0.03125 0  0.796875 0.03125 0  0.8125 0.03125 0  0.828125 0.03125 0  0.84375 0.03125 0  0.859375 0.03125 0  0.875 0.03125 0  0.890625 0.03125 0  0.90625 0.03125 0  0.921875 0.03125 0  0.9375 0.03125 0  0.953125 0.03125 0  0.96875 0.03125 0  0.984375 0.03125 0  1 0.03125 0  0 0.046875 0  0.015625 0.046875 0  0.03125 0.046875 0  0.046875 0.046875 0  0.0625 0.046875 0  0.078125 0.046875 0  0.09375 0.046875 0  0.109375 0.046875 0  0.125 0.046875 0  0.140625 0.046875 0  0.15625 0.046875 0  0.171875 0.046875 0  0.1875 0.046875 0  0.203125 0.046875 0  0.21875 0.046875 0  0.234375 0.046875 0  0.25 0.046875 0  0.265625 0.046875 0  0.28125 0.046875 0  0.296875 0.046875 0  0.3125 0.046875 0  0.328125 0.046875 0  0.34375 0.046875 0  0.359375 0.046875 0  0.375 0.046875 0  0.390625 0.046875 0  0.40625 0.046875 0  0.421875 0.046875 0  0.4375 0.046875 0  0.453125 0.046875 0  0.46875 0.046875 0  0.484375 0.046875 0  0.5 0.046875 0  0.515625 0.046875 0  0.53125 0.046875 0  0.546875 0.046875 0  0.5625 0.046875 0  0.578125 0.046875 0  0.59375 0.046875 0  0.609375 0.046875 0  0.625 0.046875 0  0.640625 0.046875 0  0.65625 0.046875 0  0.671875 0.046875 0  0.6875 0.046875 0  0.703125 0.046875 0  0.71875 0.046875 0  0.734375 0.046875 0  0.75 0.046875 0  0.765625 0.046875 0  0.78125 0.046875 0  0.796875 0.046875 0  0.8125 0.046875 0  0.828125 0.046875 0  0.84375 0.046875 0  0.859375 0.046875 0  0.875 0.046875 0  0.890625 0.046875 0  0.90625 0.046875 0  0.921875 0.046875 0  0.9375 0.046875 0  0.953125 0.046875 0  0.96875 0.046875 0  0.984375 0.046875 0  1 0.046875 0  0 0.0625 0  0.015625 0.0625 0  0.03125 0.0625 0  0.046875 0.0625 0  0.0625 0.0625 0  0.078125 0.0625 0  0.09375 0.0625 0  0.109375 0.0625 0  0.125 0.0625 0  0.140625 0.0625 0  0.15625 0.0625 0  0.171875 0.0625 0  0.1875 0.0625 0  0.203125 0.0625 0  0.21875 0.0625 0  0.234375 0.0625 0  0.25 0.0625 0  0.265625 0.0625 0  0.28125 0.0625 0  0.296875 0.0625 0  0.3125 0.0625 0  0.328125 0.0625 0  0.34375 0.0625 0  0.359375 0.0625 0  0.375 0.0625 0  0.390625 0.0625 0  0.40625 0.0625 0  0.421875 0.0625 0  0.4375 0.0625 0  0.453125 0.0625 0  0.46875 0.0625 0  0.484375 0.0625 0  0.5 0.0625 0  0.515625 0.0625 0  0.53125 0.0625 0  0.546875 0.0625 0  0.5625 0.0625 0  0.578125 0.0625 0  0.59375 0.0625 0  0.609375 0.0625 0  0.625 0.0625 0  0.640625 0.0625 0  0.65625 0.0625 0  0.671875 0.0625 0  0.6875 0.0625 0  0.703125 0.0625 0  0.71875 0.0625 0  0.734375 0.0625 0  0.75 0.0625 0  0.765625 0.0625 0  0.78125 0.0625 0  0.796875 0.0625 0  0.8125 0.0625 0  0.828125 0.0625 0  0.84375 0.0625 0  0.859375 0.0625 0  0.875 0.0625 0  0.890625 0.0625 0  0.90625 0.0625 0  0.921875 0.0625 0  0.9375 0.0625 0  0.953125 0.0625 0  0.96875 0.0625 0  0.984375 0.0625 0  1 0.0625 0  0 0.078125 0  0.015625 0.078125 0  0.03125 0.078125 0  0.046875 0.078125 0  0.0625 0.078125 0  0.078125 0.078125 0  0.09375 0.078125 0  0.109375 0.078125 0  0.125 0.078125 0  0.140625 0.078125 0  0.15625 0.078125 0  0.171875 0.078125 0  0.1875 0.078125 0  0.203125 0.078125 0  0.21875 0.078125 0  0.234375 0.078125 0  0.25 0.078125 0  0.265625 0.078125 0  0.28125 0.078125 0  0.296875 0.078125 0  0.3125 0.078125 0  0.328125 0.078125 0  0.34375 0.078125 0  0.359375 0.078125 0  0.375 0.078125 0  0.390625 0.078125 0  0.40625 0.078125 0  0.421875 0.078125 0  0.4375 0.078125 0  0.453125 0.078125 0  0.46875 0.078125 0  0.484375 0.078125 0  0.5 0.078125 0  0.515625 0.078125 0  0.53125 0.078125 0  0.546875 0.078125 0  0.5625 0.078125 0  0.578125 0.078125 0  0.59375 0.078125 0  0.609375 0.078125 0  0.625 0.078125 0  0.640625 0.078125 0  0.65625 0.078125 0  0.671875 0.078125 0  0.6875 0.078125 0  0.703125 0.078125 0  0.71875 0.078125 0  0.734375 0.078125 0  0.75 0.078125 0  0.765625 0.078125 0  0.78125 0.078125 0  0.796875 0.078125 0  0.8125 0.078125 0  0.828125 0.078125 0  0.84375 0.078125 0  0.859375 0.078125 0  0.875 0.078125 0  0.890625 0.078125 0  0.90625 0.078125 0  0.921875 0.078125 0  0.9375 0.078125 0  0.953125 0.078125 0  0.96875 0.078125 0  0.984375 0.078125 0  1 0.078125 0  0 0.09375 0  0.015625 0.09375 0  0.03125 0.09375 0  0.046875 0.09375 0  0.0625 0.09375 0  0.078125 0.09375 0  0.09375 0.09375 0  0.109375 0.09375 0  0.125 0.09375 0  0.140625 0.09375 0  0.15625 0.09375 0  0.171875 0.09375 0  0.1875 0.09375 0  0.203125 0.09375 0  0.21875 0.09375 0  0.234375 0.09375 0  0.25 0.09375 0  0.265625 0.09375 0  0.28125 0.09375 0  0.296875 0.09375 0  0.3125 0.09375 0  0.328125 0.09375 0  0.34375 0.09375 0  0.359375 0.09375 0  0.375 0.09375 0  0.390625 0.09375 0  0.40625 0.09375 0  0.421875 0.09375 0  0.4375 0.09375 0  0.453125 0.09375 0  0.46875 0.09375 0  0.484375 0.09375 0  0.5 0.09375 0  0.515625 0.09375 0  0.53125 0.09375 0  0.546875 0.09375 0  0.5625 0.09375 0  0.578125 0.09375 0  0.59375 0.09375 0  0.609375 0.09375 0  0.625 0.09375 0  0.640625 0.09375 0  0.65625 0.09375 0  0.671875 0.09375 0  0.6875 0.09375 0  0.703125 0.09375 0  0.71875 0.09375 0  0.734375 0.09375 0  0.75 0.09375 0  0.765625 0.09375 0  0.78125 0.09375 0  0.796875 0.09375 0  0.8125 0.09375 0  0.828125 0.09375 0  0.84375 0.09375 0  0.859375 0.09375 0  0.875 0.09375 0  0.890625 0.09375 0  0.90625 0.09375 0  0.921875 0.09375 0  0.9375 0.09375 0  0.953125 0.09375 0  0.96875 0.09375 0  0.984375 0.09375 0  1 0.09375 0  0 0.109375 0  0.015625 0.109375 0  0.03125 0.109375 0  0.046875 0.109375 0  0.0625 0.109375 0  0.078125 0.109375 0  0.09375 0.109375 0  0.109375 0.109375 0  0.125 0.109375 0  0.140625 0.109375 0  0.15625 0.109375 0  0.171875 0.109375 0  0.1875 0.109375 0  0.203125 0.109375 0  0.21875 0.109375 0  0.234375 0.109375 0  0.25 0.109375 0  0.265625 0.109375 0  0.28125 0.109375 0  0.296875 0.109375 0  0.3125 0.109375 0  0.328125 0.109375 0  0.34375 0.109375 0  0.359375 0.109375 0  0.375 0.109375 0  0.390625 0.109375 0  0.40625 0.109375 0  0.421875 0.109375 0  0.4375 0.109375 0  0.453125 0.109375 0  0.46875 0.109375 0  0.484375 0.109375 0  0.5 0.109375 0  0.515625 0.109375 0  0.53125 0.109375 0  0.546875 0.109375 0  0.5625 0.109375 0  0.578125 0.109375 0  0.59375 0.109375 0  0.609375 0.109375 0  0.625 0.109375 0  0.640625 0.109375 0  0.65625 0.109375 0  0.671875 0.109375 0  0.6875 0.109375 0  0.703125 0.109375 0  0.71875 0.109375 0  0.734375 0.109375 0  0.75 0.109375 0  0.765625 0.109375 0  0.78125 0.109375 0  0.796875 0.109375 0  0.8125 0.109375 0  0.828125 0.109375 0  0.84375 0.109375 0  0.859375 0.109375 0  0.875 0.109375 0  0.890625 0.109375 0  0.90625 0.109375 0  0.921875 0.109375 0  0.9375 0.109375 0  0.953125 0.109375 0  0.96875 0.109375 0  0.984375 0.109375 0  1 0.109375 0  0 0.125 0  0.015625 0.125 0  0.03125 0.125 0  0.046875 0.125 0  0.0625 0.125 0  0.078125 0.125 0  0.09375 0.125 0  0.109375 0.125 0  0.125 0.12
[...]
<PointData  Scalars="f_14"> 
<DataArray  type="Float64"  Name="f_14"  format="ascii">3.2090209333466077e-11  3.0105808824767937e-11  2.4378921741172691e-11  2.0064850218902132e-11  1.6402633167446153e-11  1.3301758479388479e-11  1.0723909358261637e-11  8.5855770717244421e-12  6.8264308640371097e-12  5.3895368093843635e-12  4.2244096644568694e-12  3.2867677529752641e-12  2.5379388115508734e-12  1.9445462162553358e-12  1.4780408860407691e-12  1.1142376216153231e-12  8.3284458338155450e-13  6.1699929918859367e-13  4.5282383142403683e-13  3.2900738089931024e-13  2.3642364357433787e-13  1.6778756926288325e-13  1.1735265779341463e-13  8.0645549053572001e-14  5.4231124662296925e-14  3.5501261191769739e-14  2.2484978059347352e-14  1.3684632090698215e-14  7.9467000697357863e-15  4.3724439517764830e-15  2.2646058147145447e-15  1.0974333824535364e-15  4.9485560595221341e-16  2.0649382408263864e-16  7.9183568516764162e-17  2.7522874579009558e-17  8.3125184209048248e-18  1.7817863951020162e-18  -2.4411596876272401e-19  -8.1670457409681801e-19  -9.6396750384199423e-19  -9.9839643933203963e-19  -1.0057071438824384e-18  -1.0071160573606170e-18  -1.0073623376055972e-18  -1.0074013645224649e-18  -1.0074069684184632e-18  -1.0074076972660244e-18  -1.0074077830997968e-18  -1.0074077922499830e-18  -1.0074077931327517e-18  -1.0074077932098091e-18  -1.0074077932158939e-18  -1.0074077932163284e-18  -1.0074077932163546e-18  -1.0074077932163559e-18  -1.0074077932163555e-18  -1.0074077932163549e-18  -1.0074077932163555e-18  -1.0074077932163551e-18  -1.0074077932163551e-18  -1.0074077932163549e-18  -1.0074077932163522e-18  -1.0074077932163530e-18  -1.0074077932163521e-18  9.3213903565189808e-11  8.6473153782897645e-11  7.0795767551159615e-11  5.9968237264154000e-11  4.9911872545035704e-11  4.1393559260223174e-11  3.4102720961331152e-11  2.7913001024900157e-11  2.2697276097440194e-11  1.8330773456882077e-11  1.4701656290242960e-11  1.1707140079153250e-11  9.2545294491982530e-12  7.2609458326634472e-12  5.6529898605969471e-12  4.3663019910620473e-12  3.3449899427128529e-12  2.5409802261224401e-12  1.9133136063213370e-12  1.4274152105021739e-12  1.0543724019340174e-12  7.7025475952909480e-13  5.5550247206918864e-13  3.9438592710423617e-13  2.7450671401162327e-13  1.8629016405833141e-13  1.2243557506040256e-13  7.7343162107432430e-14  4.6592827973040428e-14  2.6562983623030748e-14  1.4230807058630461e-14  7.1196535534895102e-15  3.3083829979096205e-15  1.4212822171155677e-15  5.6213389360125871e-16  2.0377750655265944e-16  6.7215340643549706e-17  1.9770655690117116e-17  4.7679293666880846e-18  4.5552910284705643e-19  -6.7009493604846740e-19  -9.3668382840468838e-19  -9.9393482950470861e-19  -1.0050774705751384e-18  -1.0070420582389111e-18  -1.0073557342357601e-18  -1.0074010755464306e-18  -1.0074070076560636e-18  -1.0074077099926630e-18  -1.0074077852306956e-18  -1.0074077925224863e-18  -1.0074077931617727e-18  -1.0074077932124701e-18  -1.0074077932161061e-18  -1.0074077932163409e-18  -1.0074077932163549e-18  -1.0074077932163551e-18  -1.0074077932163549e-18  -1.0074077932163544e-18  -1.0074077932163538e-18  -1.0074077932163532e-18  -1.0074077932163538e-18  -1.0074077932163538e-18  -1.0074077932163522e-18  -1.0074077932163532e-18  5.0152482282902625e-10  4.7223129851835981e-10  3.9877257481167972e-10  3.4446762610640351e-10  2.9341066843910658e-10  2.4905793417085780e-10  2.0999410887610321e-10  1.7598660854986837e-10  1.4654303967662562e-10  1.2122639340247104e-10  9.9608832076734886e-11  8.1279945475136308e-11  6.5852045506895706e-11  5.2962220192987369e-11  4.2274693880943244e-11  3.3482082774787048e-11  2.6305933684306202e-11  2.0496549385950853e-11  1.5832177206243600e-11  1.2117704738255370e-11  9.1830818308351602e-12  6.8817513003311220e-12  5.0893170476237196e-12  3.7024396864274569e-12  2.6375929463532539e-12  1.8290907215342383e-12  1.2259887639848237e-12  7.8809825081712686e-13  4.8203451049160678e-13  2.7841711399227001e-13  1.5081731198106122e-13  7.6161536850823861e-14  3.5672098724972962e-14  1.5430150961974337e-14  6.1420067779756799e-15  2.2430259738646785e-15  7.4941580025754201e-16  2.2826930478851540e-16  6.2890442368241695e-17  1.5214458138597768e-17  2.7398735040364451e-18  -2.2049902181431780e-19  -8.5730748207958159e-19  -9.8141828266230755e-19  -1.0033252673885845e-18  -1.0068262701619456e-18  -1.0073327110134497e-18  -1.0073990092335131e-18  -1.0074068623096180e-18  -1.0074077038699499e-18  -1.0074077854517860e-18  -1.0074077926054760e-18  -1.0074077931728511e-18  -1.0074077932135502e-18  -1.0074077932161899e-18  -1.0074077932163445e-18  -1.0074077932163517e-18  -1.0074077932163515e-18  -1.0074077932163519e-18  -1.0074077932163511e-18  -1.0074077932163511e-18  -1.0074077932163507e-18  -1.0074077932163501e-18  -1.0074077932163509e-18  -1.0074077932163513e-18  2.6417396085619301e-09  2.5111640350131970e-09  2.1674133247564713e-09  1.9077363267703253e-09  1.6586551039638483e-09  1.4368194977505095e-09  1.2368588421144618e-09  1.0586036750458518e-09  9.0049537313133770e-10  7.6121151338623600e-10  6.3931766982992937e-10  5.3337120897944286e-10  4.4193000540610335e-10  3.6357468987408090e-10  2.9692733577496809e-10  2.4066699880889376e-10  1.9354241862738571e-10  1.5438128374180793e-10  1.2209613522794779e-10  9.5687461489385288e-11  7.4245450988552899e-11  5.6952584784238138e-11  4.3088807246739071e-11  3.2038646964853885e-11  2.3296028658466268e-11  1.6460223412522781e-11  1.1218416025091911e-11  7.3170273406300664e-12  4.5312594459184109e-12  2.6446230249167506e-12  1.4450407695307041e-12  7.3496161135658512e-13  3.4625869837409238e-13  1.5049638681781078e-13  6.0143146239577838e-14  2.2038484246933997e-14  7.3877752863045878e-15  2.2610312537249027e-15  6.3040865227182994e-16  1.5948908357559318e-16  3.6102292130468374e-17  6.7907843327084895e-18  4.8078525951737624e-19  -7.4965171869022816e-19  -9.6691188623659118e-19  -1.0016391935985665e-18  -1.0066630236798265e-18  -1.0073206713666638e-18  -1.0073985617681096e-18  -1.0074069073804659e-18  -1.0074077162507070e-18  -1.0074077871624663e-18  -1.0074077927853183e-18  -1.0074077931885738e-18  -1.0074077932147298e-18  -1.0074077932162637e-18  -1.0074077932163442e-18  -1.0074077932163476e-18  -1.0074077932163469e-18  -1.0074077932163474e-18  -1.0074077932163465e-18  -1.0074077932163463e-18  -1.0074077932163463e-18  -1.0074077932163467e-18  -1.0074077932163469e-18  1.2921915585882852e-08  1.2389350684796414e-08  1.0914121977246778e-08  9.7830797571811755e-09  8.6704512149027233e-09  7.6573387192033428e-09  6.7229061264037324e-09  5.8703445857552116e-09  5.0961919276275137e-09  4.3978473818074686e-09  3.7718540374570067e-09  3.2144077920208938e-09  2.7213449228011669e-09  2.2882499498063473e-09  1.9105374688589002e-09  1.5835339280808727e-09  1.3025512095500936e-09  1.0629489413348162e-09  8.6018395987062211e-10  6.8985014528452932e-10  5.4772006754406317e-10  4.2980651749382322e-10  3.3245799366518394e-10  2.5248009210629118e-10  1.8724040186552949e-10  1.3469226957202901e-10  9.3271116743012894e-11  6.1679545204075903e-11  3.8647723485435978e-11  2.2779579028649517e-11  1.2549105207065622e-11  6.4257601584029360e-12  3.0441259993311611e-12  1.3290865959325776e-12  5.3311208174437201e-13  1.9594164358593540e-13  6.5848647686067586e-14  2.0197891735301803e-14  5.6460043414051149e-15  1.4361378145837888e-15  3.3160217221125567e-16  6.8937048005728502e-17  1.2347695785386395e-17  1.3065553269640536e-18  -6.4377626273382185e-19  -9.5560205334202593e-19  -1.0007189626247585e-18  -1.0066253581648047e-18  -1.0073248915152137e-18  -1.0073998388570765e-18  -1.0074071021834339e-18  -1.0074077388684922e-18  -1.0074077893472865e-18  -1.0074077929670439e-18  -1.0074077932018074e-18  -1.0074077932155773e-18  -1.0074077932163083e-18  -1.0074077932163422e-18  -1.0074077932163430e-18  -1.0074077932163428e-18  -1.0074077932163420e-18  -1.0074077932163417e-18  -1.0074077932163411e-18  -1.0074077932163407e-18  -1.0074077932163397e-18  5.8633834558663149e-08  5.6683867789724618e-08  5.0913303208434064e-08  4.6432523136137762e-08  4.1906556761445519e-08  3.7696886985702683e-08  3.3723342337555203e-08  3.0014098672122243e-08  2.6566931151845439e-08  2.3383666717111651e-08  2.0461884634594061e-08  1.7797097583352360e-08  1.5382455255617091e-08  1.3209082529817169e-08  1.1266301474104931e-08  9.5418948091580688e-09  8.0223520772579267e-09  6.6930832355148854e-09  5.5385874475416747e-09  4.5426062786261128e-09  3.6883576804279786e-09  2.9590033128718192e-09  2.3384681268440403e-09  1.8125425617406162e-09  1.3699016311185312e-09  1.0024772363903701e-09  7.0476547298521989e-10  4.7217823455153205e-10  2.9915402908880168e-10  1.7796654468486703e-10  9.8795975021211826e-11  5.0909311544905020e-11  2.4243101044003118e-11  1.0629711853718865e-11  4.2784857993733318e-12  1.5769634897183499e-12  5.3117190206225854e-13  1.6323141527387254e-13  4.5700748354712633e-14  1.1643365766627359e-14  2.6963558943985360e-15  5.6660754598836688e-16  1.0742674980678508e-16  1.7787046183339950e-17  1.9467738373820655e-18  -5.8647360255032816e-19  -9.5305591873980318e-19  -1.0010498604348501e-18  -1.0067341706147732e-18  -1.0073431634862022e-18  -1.0074021789441318e-18  -1.0074073517038977e-18  -1.0074077617870818e-18  -1.0074077911913253e-18  -1.0074077930982581e-18  -1.0074077932101118e-18  -1.0074077932160443e-18  -1.0074077932163284e-18  -1.0074077932163403e-18  -1.0074077932163390e-18  -1.0074077932163380e-18  -1.0074077932163380e-18  -1.0074077932163368e-18  -1.0074077932163370e-18  -1.0074077932163332e-18  2.4710148345223085e-07  2.4078751232381074e-07  2.2028660541714609e-07  2.0420402494345942e-07  1.8749899178294643e-07  1.7162981336186618e-07  1.5629555405574735e-07  1.4165010547833069e-07  1.2771961749860708e-07  1.1455178182369363e-07  1.0217761778071152e-07  9.0620641575610301e-08  7.9894519732642303e-08  7.0003729538868669e-08  6.0943664498927637e-08  5.2700966859981850e-08  4.5253773487160173e-08  3.8571785637830279e-08  3.2616104359650394e-08  2.7339088068261931e-08  2.2685003128416933e-08  1.8592677910566572e-08  1.5001124116382743e-08  1.1857641808038011e-08  9.1256186437634339e-09  6.7876399003085594e-09  4.8405539352109787e-09  3.2831461729229224e-09  2.1017810639077624e-09  1.2612322703393136e-09  7.0519955883321585e-10  3.6554028339845052e-10  1.7491629080542413e-10  7.6998949989792973e-11  3.1092666135462154e-11  1.1490323831560949e-11  3.8785721344789552e-12  1.1939542213191529e-12  3.3474093333713252e-13  8.5380545259870568e-14  1.9793922576880198e-14  4.1671914897471720e-15  7.9564574683613253e-16  1.3712094859416250e-16  2.0709245042522806e-17  2.0874082932265288e-18  -6.0776585488332966e-19  -9.6065723716682937e-19  -1.0024545826441393e-18  -1.0069325756958719e-18  -1.0073665132700829e-18  -1.0074045470257866e-18  -1.0074075621407341e-18  -1.0074077783280629e-18  -1.0074077923481488e-18  -1.0074077931705238e-18  -1.0074077932141534e-18  -1.0074077932162467e-18  -1.0074077932163372e-18  -1.0074077932163397e-18  -1.0074077932163395e-18  -1.0074077932163390e-18  -1.0074077932163378e-18  -1.0074077932163370e-18  -1.0074077932163413e-18  9.6833315797361292e-07  9.5077813880558537e-07  8.8503512866842657e-07  8.3310553949441429e-07  7.7747590316780592e-07  7.2347905411545109e-07  6.7001581602187730e-07  6.1774457580151567e-07  5.6683261016536819e-07  5.1755498772229179e-07  4.7013291008232129e-07  4.2477151336539561e-07  3.8164690978792666e-07  3.4090645775162449e-07  3.0266607514391852e-07  2.6700819690010901e-07  2.3397873616796780e-07  2.0358245211772159e-07  1.7577645160826145e-07  1.5046373007804396e-07  1.2749227726917853e-07  1.0666843264326732e-07  8.7791600813636027e-08  7.0707449081439981e-08  5.5360518481962098e-08  4.1815615175850348e-08  3.0223850010752499e-08  2.0736680344884939e-08  1.3404327093745984e-08  8.1088486502232450e-09  4.5643145675154946e-09  2.3789444536202881e-09  1.1434987256375609e-09  5.0523191711133340e-10  2.0463046430364327e-10  7.5806713294255535e-11  2.5639458645656786e-11  7.9053128667659918e-12  2.2191978962546793e-12  5.6661565299444378e-13  1.3146762982237289e-13  2.7698992042324785e-14  5.2956038910923582e-15  9.1765449064094299e-16  1.4345900926389133e-16  1.9583540390931586e-17  1.6518131980173963e-18  -6.9631249764897655e-19  -9.7444649719302183e-19  -1.0042454165297958e-18  -1.0071330915053714e-18  -1.0073861909819283e-18  -1.0074062554658205e-18  -1.0074076941352178e-18  -1.0074077874382071e-18  -1.0074077929113757e-18  -1.0074077932017780e-18  -1.0074077932157153e-18  -1.0074077932163197e-18  -1.0074077932163430e-18  -1.0074077932163440e-18  -1.0074077932163436e-18  -1.0074077932163430e-18  -1.0074077932163424e-18  -1.0074077932163418e-18  3.5324387402872998e-06  3.4935195259947433e-06  3.3053051264349223e-06  3.1563784042459978e-06  2.9908879284087348e-06  2.8265252178916905e-06  2.6594155840502304e-06  2.4919124817200526e-06  2.3246326677214677e-06  2.1586701513534076e-06  1.9949729022272726e-06  1.8344933457637494e-06  1.6781317440342704e-06  1.5267334264474996e-06  1.3810708563578584e-06  1.2418256461925700e-06  1.1095618856721578e-06  9.8468668000909505e-07  8.6739628739092733e-07  7.5761993173171200e-07  6.5499648946983430e-07  5.5893987708943363e-07  4.6884014911178020e-07  3.8438524591760395e-07  3.0588580119067925e-07  2.3440982477803448e-07  1.7157082191743264e-07  1.1898305817930388e-07  7.7606873949329861e-08  4.7300476766446510e-08  2.6789654866726793e-08  1.4034078140506120e-08  6.7740073972297281e-09  3.0031829576952324e-09  1.2197479164354007e-09  4.5288830390213360e-10  1.5345796248340105e-10  4.7385121182087894e-11  1.3317808118338250e-11  3.4035530836613082e-12  7.9028371558712515e-13  1.6660326408981497e-13  3.1869539953707245e-14  5.5284653794470682e-15  8.6873974905015313e-16  1.2297803870645422e-16  1.5006404983629506e-17  8.6613659623693895e-19  -8.0889201573590868e-19  -9.8836110555302367e-19  -1.0057532372105968e-18  -1.0072776756953945e-18  -1.0073985303413431e-18  -1.0074071963431427e-18  -1.0074077584049975e-18  -1.0074077913787851e-18  -1.0074077931285641e-18  -1.0074077932125557e-18  -1.0074077932162022e-18  -1.0074077932163455e-18  -1.0074077932163515e-18  -1.0074077932163513e-18  -1.0074077932163482e-18  -1.0074077932163488e-18  -1.0074077932163478e-18  1.2007902173519564e-05  1.1956894495241154e-05  1.1486001480552914e-05  1.1116172020924452e-05  1.0684566599769188e-05  1.0244373772535372e-05  9.7826062476599298e-06  9.3064525289293598e-06  8.8174268665950316e-06  8.3188931978399220e-06  7.8138726284734136e-06  7.3056115202546683e-06  6.7973737523265947e-06  6.2924362948856973e-06  5.7940152002211493e-06  5.3051787255209094e-06  4.8287035976727418e-06  4.3668482132949764e-06  3.9210321533302712e-06  3.4914890594209929e-06  3.0770932299685060e-06  2.6756819701129125e-06  2.2851521938879763e-06  1.9052618943239059e-06  1.5394810599221688e-06  1.1957910701844771e-06  8.8551659600624887e-07  6.2022461940544222e-07  4.0792172447989702e-07  2.5034647817967760e-07  1.4259938153278941e-07  7.5052975949337023e-08  3.6366065738713177e-08  1.6173180167353395e-08  6.5856061206574085e-09  2.4503113239122099e-09  8.3167216414177986e-10  2.5715482569547585e-10  7.2353072507362244e-11  1.8506749161218642e-11  4.3000459463103356e-12  9.0698611351485189e-13  1.7356935776755830e-13  3.0121926311817281e-14  4.7381352323921073e-15  6.7467799292855758e-16  8.6272951833940424e-17  9.2048257520326263e-18  7.4721269522324950e-20  -9.0357664905463775e-19  -9.9838762650899201e-19  -1.0066983823064353e-18  -1.0073572871249969e-18  -1.0074045384099855e-18  -1.0074076033621099e-18  -1.0074077831930357e-18  -1.0074077927374166e-18  -1.0074077931956483e-18  -1.0074077932155503e-18  -1.0074077932163309e-18  -1.0074077932163569e-18  -1.0074077932163584e-18  -1.0074077932163542e-18  -1.0074077932163544e-18  -1.0074077932163547e-18  3.8072659478795179e-05  3.8154529614671428e-05  3.7173105719876136e-05  3.6424277294791047e-05  3.5476769674613137e-05  3.4474974823293453e-05  3.3378204152616204e-05  3.2205287025538483e-05  3.0957903085479250e-05  2.9644018731549975e-05  2.8270837482234971e-05  2.6846795421997034e-05  2.5380895394318773e-05  2.3882754261377744e-05  2.2362366937056271e-05  2.0829775436773962e-05  1.9294433330306576e-05  1.7764117079884729e-05  1.6243319214900586e-05  1.4731455761531354e-05  1.3221913477506044e-05  1.1703609664306372e-05  1.0166548056851509e-05  8.6110944924064915e-06  7.0576715119615983e-06  5.5512021887430370e-06  4.1554589263767202e-06  2.9372642337663890e-06  1.9466663060587806e-06  1.2022875879683481e-06  6.8841866323798067e-07  3.6388594842840314e-07  1.7693715451070374e-07  7.8915936140425645e-08  3.2209295619914217e-08  1.2006941344288491e-08  4.0816063875401917e-09  1.2636029070786078e-09  3.5587822457810249e-10  9.1098937800314136e-11  2.1179763013809419e-11  4.4694412089780696e-12  8.5562344312600816e-13  1.4853146756689046e-13  2.3371769491071640e-14  3.3318662479285764e-15  4.2955745771670190e-16  4.9375147564334040e-17  4.3317216077787800e-18  -4.9507790055685047e-19  -9.6289656242275031e-19  -1.0039068003729707e-18  -1.0071585155752656e-18  -1.0073917267284607e-18  -1.0074068559044097e-18  -1.0074077437218701e-18  -1.0074077908508548e-18  -1.0074077931140480e-18  -1.0074077932123675e-18  -1.0074077932162315e-18  -1.0074077932163692e-18  -1.0074077932163757e-18  -1.0074077932163632e-18  -1.0074077932163663e-18  -1.0074077932163557e-18  1.1269288894047387e-04  1.1361100673697139e-04  1.1214003410732120e-04  1.1113759571821344e-04  1.0957737705289710e-04  1.0781053087125575e-04  1.0571984377251187e-04  1.0334706984821568e-04  1.0068614757809695e-04  9.7749812126175800e-05  9.4548869914930404e-05  9.1098619906922955e-05  8.7416926172418033e-05  8.3524605978301469e-05  7.9444781914696165e-05  7.5201741576668549e-05  7.0818386173807733e-05  6.6311526638141363e-05  6.1684678323656469e-05  5.6919840975857585e-05  5.1973002236397826e-05  4.6781207542562073e-05  4.1288321149689743e-05  3.5488567105878198e-05  2.9472844357261455e-05  2.3451449737765376e-05  1.7730087265196525e-05  1.2637825048983737e-05  8.4344149051498599e-06  5.2394090782355729e-06  3.0143445891186599e-06  1.5995595559642230e-06  7.8026268037176425e-07  3.4891394690449941e-07  1.4271054465449855e-07  5.3291048501459260e-08  1.8140774192753654e-08  5.6223601536330050e-09  1.5848710426485982e-09  4.0598380480310079e-10  9.4439231868750834e-11  1.9937292068946368e-11  3.8179817632527679e-12  6.6294142999794422e-13  1.0433690770849914e-13  1.4879199453586704e-14  1.9215260615571915e-15  2.2397724342737304e-16  2.2836487693699889e-17  1.2807767680891879e-18  -8.0859270530022569e-19  -9.9176854486235170e-19  -1.0062941098519982e-18  -1.0073360032309058e-18  -1.0074036042783729e-18  -1.0074075719745340e-18  -1.0074077826398822e-18  -1.0074077927587515e-18  -1.0074077931984636e-18  -1.0074077932157500e-18  -1.0074077932163650e-18  -1.0074077932163842e-18  -1.0074077932163823e-18  -1.0074077932163846e-18  -1.0074077932163844e-18  3.1165729299785684e-04  3.1593090551956593e-04  3.1558047402990006e-04  3.1601424567068121e-04  3.1508154835403052e-04  3.1353494252012008e-04  3.1106878886671209e-04  3.0775814507686143e-04  3.0355600246863399e-04  2.9846482021372948e-04  2.9248095509385808e-04  2.8561337203711226e-04  2.7787844840463456e-04  2.6930168642577842e-04  2.5991596257101909e-04  2.4975762434977834e-04  2.3885675406658689e-04  2.2721831904453187e-04  2.1479256936032435e-04  2.0144070058902730e-04  1.8691556933906760e-04  1.7089068377182230e-04  1.5306835606100503e-04  1.3336478339607684e-04  1.1211052880755332e-04  9.0155749813307791e-05  6.8780671086093992e-05  4.9401131279925953e-05  3.3179772775405938e-05  2.0719311378708698e-05  1.1971682609907082e-05  6.3751982452129422e-06  3.1187791596456699e-06  1.3979149534094131e-06  5.7285603700791767e-07  2.1424576021368913e-07  7.3021573527652626e-08  2.2653897302832396e-08  6.3908333313206188e-09  1.6380905078787186e