<?xml version="1.0"?>
<VTKFile type="UnstructuredGrid"  version="0.1"  >
<UnstructuredGrid>
<Piece  NumberOfPoints="4225" NumberOfCells="8192">
<Points>
<DataArray  type="Float64"  NumberOfComponents="3"  format="ascii">0 0 0  0.015625 0 0  0.03125 0 0  0.046875 0 0  0.0625 0 0  0.078125 0 0  0.09375 0 0  0.109375 0 0  0.125 0 0  0.140625 0 0  0.15625 0 0  0.171875 0 0  0.1875 0 0  0.203125 0 0  0.21875 0 0  0.234375 0 0  0.25 0 0  0.265625 0 0  0.28125 0 0  0.296875 0 0  0.3125 0 0  0.328125 0 0  0.34375 0 0  0.359375 0 0  0.375 0 0  0.390625 0 0  0.40625 0 0  0.421875 0 0  0.4375 0 0  0.453125 0 0  0.46875 0 0  0.484375 0 0  0.5 0 0  0.515625 0 0  0.53125 0 0  0.546875 0 0  0.5625 0 0  0.578125 0 0  0.59375 0 0  0.609375 0 0  0.625 0 0  0.640625 0 0  0.65625 0 0  0.671875 0 0  0.6875 0 0  0.703125 0 0  0.71875 0 0  0.734375 0 0  0.75 0 0  0.765625 0 0  0.78125 0 0  0.796875 0 0  0.8125 0 0  0.828125 0 0  0.84375 0 0  0.859375 0 0  0.875 0 0  0.890625 0 0  0.90625 0 0  0.921875 0 0  0.9375 0 0  0.953125 0 0  0.96875 0 0  0.984375 0 0  1 0 0  0 0.015625 0  0.015625 0.015625 0  0.03125 0.015625 0  0.046875 0.015625 0  0.0625 0.015625 0  0.078125 0.015625 0  0.09375 0.015625 0  0.109375 0.015625 0  0.125 0.015625 0  0.140625 0.015625 0  0.15625 0.015625 0  0.171875 0.015625 0  0.1875 0.015625 0  0.203125 0.015625 0  0.21875 0.015625 0  0.234375 0.015625 0  0.25 0.015625 0  0.265625 0.015625 0  0.28125 0.015625 0  0.296875 0.015625 0  0.3125 0.015625 0  0.328125 0.015625 0  0.34375 0.015625 0  0.359375 0.015625 0  0.375 0.015625 0  0.390625 0.015625 0  0.40625 0.015625 0  0.421875 0.015625 0  0.4375 0.015625 0  0.453125 0.015625 0  0.46875 0.015625 0  0.484375 0.015625 0  0.5 0.015625 0  0.515625 0.015625 0  0.53125 0.015625 0  0.546875 0.015625 0  0.5625 0.015625 0  0.578125 0.015625 0  0.59375 0.015625 0  0.609375 0.015625 0  0.625 0.015625 0  0.640625 0.015625 0  0.65625 0.015625 0  0.671875 0.015625 0  0.6875 0.015625 0  0.703125 0.015625 0  0.71875 0.015625 0  0.734375 0.015625 0  0.75 0.015625 0  0.765625 0.015625 0  0.78125 0.015625 0  0.796875 0.015625 0  0.8125 0.015625 0  0.828125 0.015625 0  0.84375 0.015625 0  0.859375 0.015625 0  0.875 0.015625 0  0.890625 0.015625 0  0.90625 0.015625 0  0.921875 0.015625 0  0.9375 0.015625 0  0.953125 0.015625 0  0.96875 0.015625 0  0.984375 0.015625 0  1 0.015625 0  0 0.03125 0  0.015625 0.03125 0  0.03125 0.03125 0  0.046875 0.03125 0  0.0625 0.03125 0  0.078125 0.03125 0  0.09375 0.03125 0  0.109375 0.03125 0  0.125 0.03125 0  0.140625 0.03125 0  0.15625 0.03125 0  0.171875 0.03125 0  0.1875 0.03125 0  0.203125 0.03125 0  0.21875 0.03125 0  0.234375 0.03125 0  0.25 0.03125 0  0.265625 0.03125 0  0.28125 0.03125 0  0.296875 0.03125 0  0.3125 0.03125 0  0.328125 0.03125 0  0.34375 0.03125 0  0.359375 0.03125 0  0.375 0.03125 0  0.390625 0.03125 0  0.40625 0.03125 0  0.421875 0.03125 0  0.4375 0.03125 0  0.453125 0.03125 0  0.46875 0.03125 0  0.484375 0.03125 0  0.5 0.03125 0  0.515625 0.03125 0  0.53125 0.03125 0  0.546875 0.03125 0  0.5625 0.03125 0  0.578125 0.03125 0  0.59375 0.03125 0  0.609375 0.03125 0  0.625 0.03125 0  0.640625 0.03125 0  0.65625 0.03125 0  0.671875 0.03125 0  0.6875 0.03125 0  0.703125 0.03125 0  0.71875 0.03125 0  0.734375 0.03125 0  0.75 0.03125 0  0.765625 0.03125 0  0.78125 0.03125 0  0.796875 0.03125 0  0.8125 0.03125 0  0.828125 0.03125 0  0.84375 0.03125 0  0.859375 0.03125 0  0.875 0.03125 0  0.890625 0.03125 0  0.90625 0.03125 0  0.921875 0.03125 0  0.9375 0.03125 0  0.953125 0.03125 0  0.96875 0.03125 0  0.984375 0.03125 0  1 0.03125 0  0 0.046875 0  0.015625 0.046875 0  0.03125 0.046875 0  0.046875 0.046875 0  0.0625 0.046875 0  0.078125 0.046875 0  0.09375 0.046875 0  0.109375 0.046875 0  0.125 0.046875 0  0.140625 0.046875 0  0.15625 0.046875 0  0.171875 0.046875 0  0.1875 0.046875 0  0.203125 0.046875 0  0.21875 0.046875 0  0.234375 0.046875 0  0.25 0.046875 0  0.265625 0.046875 0  0.28125 0.046875 0  0.296875 0.046875 0  0.3125 0.046875 0  0.328125 0.046875 0  0.34375 0.046875 0  0.359375 0.046875 0  0.375 0.046875 0  0.390625 0.046875 0  0.40625 0.046875 0  0.421875 0.046875 0  0.4375 0.046875 0  0.453125 0.046875 0  0.46875 0.046875 0  0.484375 0.046875 0  0.5 0.046875 0  0.515625 0.046875 0  0.53125 0.046875 0  0.546875 0.046875 0  0.5625 0.046875 0  0.578125 0.046875 0  0.59375 0.046875 0  0.609375 0.046875 0  0.625 0.046875 0  0.640625 0.046875 0  0.65625 0.046875 0  0.671875 0.046875 0  0.6875 0.046875 0  0.703125 0.046875 0  0.71875 0.046875 0  0.734375 0.046875 0  0.75 0.046875 0  0.765625 0.046875 0  0.78125 0.046875 0  0.796875 0.046875 0  0.8125 0.046875 0  0.828125 0.046875 0  0.84375 0.046875 0  0.859375 0.046875 0  0.875 0.046875 0  0.890625 0.046875 0  0.90625 0.046875 0  0.921875 0.046875 0  0.9375 0.046875 0  0.953125 0.046875 0  0.96875 0.046875 0  0.984375 0.046875 0  1 0.046875 0  0 0.0625 0  0.015625 0.0625 0  0.03125 0.0625 0  0.046875 0.0625 0  0.0625 0.0625 0  0.078125 0.0625 0  0.09375 0.0625 0  0.109375 0.0625 0  0.125 0.0625 0  0.140625 0.0625 0  0.15625 0.0625 0  0.171875 0.0625 0  0.1875 0.0625 0  0.203125 0.0625 0  0.21875 0.0625 0  0.234375 0.0625 0  0.25 0.0625 0  0.265625 0.0625 0  0.28125 0.0625 0  0.296875 0.0625 0  0.3125 0.0625 0  0.328125 0.0625 0  0.34375 0.0625 0  0.359375 0.0625 0  0.375 0.0625 0  0.390625 0.0625 0  0.40625 0.0625 0  0.421875 0.0625 0  0.4375 0.0625 0  0.453125 0.0625 0  0.46875 0.0625 0  0.484375 0.0625 0  0.5 0.0625 0  0.515625 0.0625 0  0.53125 0.0625 0  0.546875 0.0625 0  0.5625 0.0625 0  0.578125 0.0625 0  0.59375 0.0625 0  0.609375 0.0625 0  0.625 0.0625 0  0.640625 0.0625 0  0.65625 0.0625 0  0.671875 0.0625 0  0.6875 0.0625 0  0.703125 0.0625 0  0.71875 0.0625 0  0.734375 0.0625 0  0.75 0.0625 0  0.765625 0.0625 0  0.78125 0.0625 0  0.796875 0.0625 0  0.8125 0.0625 0  0.828125 0.0625 0  0.84375 0.0625 0  0.859375 0.0625 0  0.875 0.0625 0  0.890625 0.0625 0  0.90625 0.0625 0  0.921875 0.0625 0  0.9375 0.0625 0  0.953125 0.0625 0  0.96875 0.0625 0  0.984375 0.0625 0  1 0.0625 0  0 0.078125 0  0.015625 0.078125 0  0.03125 0.078125 0  0.046875 0.078125 0  0.0625 0.078125 0  0.078125 0.078125 0  0.09375 0.078125 0  0.109375 0.078125 0  0.125 0.078125 0  0.140625 0.078125 0  0.15625 0.078125 0  0.171875 0.078125 0  0.1875 0.078125 0  0.203125 0.078125 0  0.21875 0.078125 0  0.234375 0.078125 0  0.25 0.078125 0  0.265625 0.078125 0  0.28125 0.078125 0  0.296875 0.078125 0  0.3125 0.078125 0  0.328125 0.078125 0  0.34375 0.078125 0  0.359375 0.078125 0  0.375 0.078125 0  0.390625 0.078125 0  0.40625 0.078125 0  0.421875 0.078125 0  0.4375 0.078125 0  0.453125 0.078125 0  0.46875 0.078125 0  0.484375 0.078125 0  0.5 0.078125 0  0.515625 0.078125 0  0.53125 0.078125 0  0.546875 0.078125 0  0.5625 0.078125 0  0.578125 0.078125 0  0.59375 0.078125 0  0.609375 0.078125 0  0.625 0.078125 0  0.640625 0.078125 0  0.65625 0.078125 0  0.671875 0.078125 0  0.6875 0.078125 0  0.703125 0.078125 0  0.71875 0.078125 0  0.734375 0.078125 0  0.75 0.078125 0  0.765625 0.078125 0  0.78125 0.078125 0  0.796875 0.078125 0  0.8125 0.078125 0  0.828125 0.078125 0  0.84375 0.078125 0  0.859375 0.078125 0  0.875 0.078125 0  0.890625 0.078125 0  0.90625 0.078125 0  0.921875 0.078125 0  0.9375 0.078125 0  0.953125 0.078125 0  0.96875 0.078125 0  0.984375 0.078125 0  1 0.078125 0  0 0.09375 0  0.015625 0.09375 0  0.03125 0.09375 0  0.046875 0.09375 0  0.0625 0.09375 0  0.078125 0.09375 0  0.09375 0.09375 0  0.109375 0.09375 0  0.125 0.09375 0  0.140625 0.09375 0  0.15625 0.09375 0  0.171875 0.09375 0  0.1875 0.09375 0  0.203125 0.09375 0  0.21875 0.09375 0  0.234375 0.09375 0  0.25 0.09375 0  0.265625 0.09375 0  0.28125 0.09375 0  0.296875 0.09375 0  0.3125 0.09375 0  0.328125 0.09375 0  0.34375 0.09375 0  0.359375 0.09375 0  0.375 0.09375 0  0.390625 0.09375 0  0.40625 0.09375 0  0.421875 0.09375 0  0.4375 0.09375 0  0.453125 0.09375 0  0.46875 0.09375 0  0.484375 0.09375 0  0.5 0.09375 0  0.515625 0.09375 0  0.53125 0.09375 0  0.546875 0.09375 0  0.5625 0.09375 0  0.578125 0.09375 0  0.59375 0.09375 0  0.609375 0.09375 0  0.625 0.09375 0  0.640625 0.09375 0  0.65625 0.09375 0  0.671875 0.09375 0  0.6875 0.09375 0  0.703125 0.09375 0  0.71875 0.09375 0  0.734375 0.09375 0  0.75 0.09375 0  0.765625 0.09375 0  0.78125 0.09375 0  0.796875 0.09375 0  0.8125 0.09375 0  0.828125 0.09375 0  0.84375 0.09375 0  0.859375 0.09375 0  0.875 0.09375 0  0.890625 0.09375 0  0.90625 0.09375 0  0.921875 0.09375 0  0.9375 0.09375 0  0.953125 0.09375 0  0.96875 0.09375 0  0.984375 0.09375 0  1 0.09375 0  0 0.109375 0  0.015625 0.109375 0  0.03125 0.109375 0  0.046875 0.109375 0  0.0625 0.109375 0  0.078125 0.109375 0  0.09375 0.109375 0  0.109375 0.109375 0  0.125 0.109375 0  0.140625 0.109375 0  0.15625 0.109375 0  0.171875 0.109375 0  0.1875 0.109375 0  0.203125 0.109375 0  0.21875 0.109375 0  0.234375 0.109375 0  0.25 0.109375 0  0.265625 0.109375 0  0.28125 0.109375 0  0.296875 0.109375 0  0.3125 0.109375 0  0.328125 0.109375 0  0.34375 0.109375 0  0.359375 0.109375 0  0.375 0.109375 0  0.390625 0.109375 0  0.40625 0.109375 0  0.421875 0.109375 0  0.4375 0.109375 0  0.453125 0.109375 0  0.46875 0.109375 0  0.484375 0.109375 0  0.5 0.109375 0  0.515625 0.109375 0  0.53125 0.109375 0  0.546875 0.109375 0  0.5625 0.109375 0  0.578125 0.109375 0  0.59375 0.109375 0  0.609375 0.109375 0  0.625 0.109375 0  0.640625 0.109375 0  0.65625 0.109375 0  0.671875 0.109375 0  0.6875 0.109375 0  0.703125 0.109375 0  0.71875 0.109375 0  0.734375 0.109375 0  0.75 0.109375 0  0.765625 0.109375 0  0.78125 0.109375 0  0.796875 0.109375 0  0.8125 0.109375 0  0.828125 0.109375 0  0.84375 0.109375 0  0.859375 0.109375 0  0.875 0.109375 0  0.890625 0.109375 0  0.90625 0.109375 0  0.921875 0.109375 0  0.9375 0.109375 0  0.953125 0.109375 0  0.96875 0.109375 0  0.984375 0.109375 0  1 0.109375 0  0 0.125 0  0.015625 0.125 0  0.03125 0.125 0  0.046875 0.125 0  0.0625 0.125 0  0.078125 0.125 0  0.09375 0.125 0  0.109375 0.125 0  0.125 0.12
[...]
<PointData  Scalars="f_14"> 
<DataArray  type="Float64"  Name="f_14"  format="ascii">-2.2334500797864463e-15  -2.2353382160855993e-15  -2.2342379419501846e-15  -2.2327116375217789e-15  -2.2315178313173942e-15  -2.2307570198380284e-15  -2.2303186956123424e-15  -2.2301171923196236e-15  -2.2300317649364424e-15  -2.2299218434491115e-15  -2.2300428228810168e-15  -2.2298392516437164e-15  -2.2291195293615330e-15  -2.2284243361518178e-15  -2.2173606897900605e-15  -2.1639507532212424e-15  -1.8917855787748240e-15  -3.4919521814299427e-16  7.9327645678815266e-15  5.1693713980981118e-14  2.7752040644239380e-13  1.3975093814507987e-12  6.7127629983375308e-12  3.0745621494127121e-11  1.3383684327806500e-10  5.5223331977692993e-10  2.1554882379097319e-09  7.9455406613298503e-09  2.7624989571640650e-08  9.0509731805588616e-08  2.7930050104823713e-07  8.1166190405700932e-07  2.2221205908882091e-06  5.7366260817950568e-06  1.3985782565983131e-05  3.2262652317860281e-05  7.0579759150221340e-05  1.4678973711245661e-04  2.9097298623410943e-04  5.5113254797992453e-04  9.9996606405331661e-04  1.7421063776204098e-03  2.9208371066582624e-03  4.7228588325464137e-03  7.3796268375636064e-03  1.1163408063215276e-02  1.6377521347209899e-02  2.3338572242475260e-02  3.2354789085170178e-02  4.3693386249299443e-02  5.7558099055213509e-02  7.4039617802322752e-02  9.3127810039318581e-02  1.1461379481441336e-01  1.3823601828129595e-01  1.6338848307358064e-01  1.8968208987958055e-01  2.1600413335279492e-01  2.4220484222619168e-01  2.6648497102565311e-01  2.8941863658919353e-01  3.0870195063054484e-01  3.2481215697215782e-01  3.3829682608385814e-01  3.4360701981029129e-01  -2.3128064493801191e-15  -2.3077643268915775e-15  -2.3049172827470323e-15  -2.3033949226747899e-15  -2.3026387241179239e-15  -2.3022953969159100e-15  -2.3021609466300203e-15  -2.3021413792008513e-15  -2.3021134337372226e-15  -2.3020979912363447e-15  -2.3020872651048298e-15  -2.3012846373189065e-15  -2.2988600681664731e-15  -2.2858159512332599e-15  -2.2160424946369910e-15  -1.8818880465794528e-15  -2.1594319694870141e-16  8.0309357666759029e-15  4.8379878378684525e-14  2.4404575839134955e-13  1.1732905537229185e-12  5.4561650683137135e-12  2.4478089477687906e-11  1.0535184259528038e-10  4.3281332720407346e-10  1.6906733831613198e-09  6.2603603589188286e-09  2.1923575107819970e-08  7.2488272277764590e-08  2.2604160070169375e-07  6.6440635424341177e-07  1.8408641687634497e-06  4.8110473215639759e-06  1.1874922712913797e-05  2.7730277229182140e-05  6.1394429906600636e-05  1.2917449578968347e-04  2.5892337327007960e-04  4.9567610351933754e-04  9.0850089299318192e-04  1.5980312238030145e-03  2.7037150485415052e-03  4.4094135321533614e-03  6.9456959006858471e-03  1.0587166380346468e-02  1.5643368530906827e-02  2.2442630365108879e-02  3.1308637550544458e-02  4.2531865052311525e-02  5.6336030543233273e-02  7.2847932860115067e-02  9.2062530766757023e-02  1.1383377038344127e-01  1.3783566069726236e-01  1.6362120476042427e-01  1.9051961774227241e-01  2.1789624608885380e-01  2.4474688924641391e-01  2.7056255329676276e-01  2.9392750239252452e-01  3.1502248819159184e-01  3.3175638957531622e-01  3.4547889188708275e-01  3.5422944692248526e-01  3.5650393587100604e-01  -2.4263398846977439e-15  -2.4273749647530559e-15  -2.4282451346060421e-15  -2.4288983117008157e-15  -2.4293553719664836e-15  -2.4296470201740145e-15  -2.4298277646338540e-15  -2.4299277583516144e-15  -2.4298978035396156e-15  -2.4297809101467980e-15  -2.4288288944742000e-15  -2.4235458878843011e-15  -2.3980663369675274e-15  -2.2660935611859631e-15  -1.6276174643924742e-15  1.3674631758852638e-15  1.5210278034729229e-14  7.8094854193898308e-14  3.6045389153099866e-13  1.6120266813435401e-12  7.0568051886313849e-12  3.0151958042185029e-11  1.2498739102525861e-10  4.9943831912684898e-10  1.9130082223141082e-09  6.9910615587646272e-09  2.4284836216419905e-08  7.9955294302830436e-08  2.4898975402069054e-07  7.3242739708489296e-07  2.0339592770854439e-06  5.3330566930273898e-06  1.3213682194971678e-05  3.0981001774106653e-05  6.8864613934035943e-05  1.4543350411822518e-04  2.9249402075330795e-04  5.6156831474938977e-04  1.0317361551483442e-03  1.8181812285290079e-03  3.0802759712708328e-03  5.0275655561823548e-03  7.9217190992476576e-03  1.2072493715475393e-02  1.7826200785852491e-02  2.5545819616557695e-02  3.5583388400805729e-02  4.8245744519317853e-02  6.3758038403427184e-02  8.2225482612087245e-02  1.0360573903537926e-01  1.2767819980300063e-01  1.5405347466546260e-01  1.8213931175479231e-01  2.1124473652391845e-01  2.4044810797143601e-01  2.6897366345925794e-01  2.9561624707519824e-01  3.1995899069237271e-01  3.4036310850766671e-01  3.5752203400744353e-01  3.6883667514902940e-01  3.7700232764662095e-01  3.7809634475870907e-01  3.7615623730252523e-01  -2.5507122873631444e-15  -2.5506470274281086e-15  -2.5505244147892178e-15  -2.5503942514712016e-15  -2.5502798079896343e-15  -2.5501775179329770e-15  -2.5501007464626038e-15  -2.5499764919494602e-15  -2.5496339830788847e-15  -2.5481875956411468e-15  -2.5395242346671929e-15  -2.4930192504054155e-15  -2.2513149290689203e-15  -1.0550846100760749e-15  4.5467373101613117e-15  2.9775593363460037e-14  1.3981586689801331e-13  6.0793894520098499e-13  2.5608515538269531e-12  1.0558156913960070e-11  4.2635762637401925e-11  1.6810235236243077e-10  6.4389281458217956e-10  2.3827819039807381e-09  8.4738317425216475e-09  2.8824518584638194e-08  9.3419813123862814e-08  2.8760117262894533e-07  8.3920637873399841e-07  2.3178872092258524e-06  6.0567453751455888e-06  1.4976984145307129e-05  3.5079658551700721e-05  7.7942596353162077e-05  1.6458719181576062e-04  3.3101079499985259e-04  6.3547094008572320e-04  1.1672358153755713e-03  2.0560021052899499e-03  3.4806019874264512e-03  5.6751022352849664e-03  8.9300943324028079e-03  1.3587034957178201e-02  2.0024005805960369e-02  2.8632255308414435e-02  3.9784173907725165e-02  5.3794982185712027e-02  7.0881443935205887e-02  9.1122861441346514e-02  1.1442762038649903e-01  1.4051419516699840e-01  1.6889997723083255e-01  1.9892403691496927e-01  2.2974849536060238e-01  2.6046024375011018e-01  2.8999972996615803e-01  3.1748323255262467e-01  3.4173501272696366e-01  3.6238120857059042e-01  3.7793123535749107e-01  3.8939431255244300e-01  3.9405543096886830e-01  3.9576352090319661e-01  3.8917999827853156e-01  3.8137915477644485e-01  -2.6801528168956776e-15  -2.6801799888434626e-15  -2.6802237847071954e-15  -2.6802729908567056e-15  -2.6803101160419791e-15  -2.6803185551666910e-15  -2.6802707613797677e-15  -2.6798891607336915e-15  -2.6778516703920229e-15  -2.6654172878587534e-15  -2.5922473500459022e-15  -2.1916610617122384e-15  -1.3069171424915346e-16  9.8047058903983762e-15  5.5023631209961487e-14  2.5102859486750832e-13  1.0665376060594355e-12  4.3486379255544489e-12  1.7198393905787992e-11  6.6275779841188828e-11  2.4912609062323225e-10  9.1200622890758392e-10  3.2405448702786160e-09  1.1127622144762904e-08  3.6760555666560979e-08  1.1633669632609634e-07  3.5142141904640027e-07  1.0103458246066315e-06  2.7590438438423968e-06  7.1479575265526800e-06  1.7562542346115648e-05  4.0939843367234036e-05  9.0635901182338052e-05  1.9085320549871825e-04  3.8294741958936750e-04  7.3367702541683808e-04  1.3450165983923961e-03  2.3645547115471945e-03  3.9948364647219370e-03  6.4994415156280757e-03  1.0203294105658201e-02  1.5484845289914940e-02  2.2758449519318318e-02  3.2446451427781450e-02  4.4942095801156212e-02  6.0566033209749008e-02  7.9520837342121134e-02  1.0184864134465507e-01  1.2739811092307513e-01  1.5580430104030588e-01  1.8648873708622754e-01  2.1867254278761269e-01  2.5142287230130561e-01  2.8368152846702455e-01  3.1438006047910738e-01  3.4239449950178868e-01  3.6685287120452170e-01  3.8669669633024112e-01  4.0172952180335231e-01  4.1069358465024336e-01  4.1497622037034954e-01  4.1187976850217306e-01  4.0635722559368526e-01  3.9144813483334079e-01  3.7865198142171808e-01  -2.8167265782613263e-15  -2.8167539049656896e-15  -2.8167658292490740e-15  -2.8167587709858831e-15  -2.8167145864067752e-15  -2.8165994719830935e-15  -2.8161595438556773e-15  -2.8136773513681314e-15  -2.7980433251534735e-15  -2.6994988421368380e-15  -2.1213357435428641e-15  1.0259361892276174e-15  1.6944190671258618e-14  9.2040993311027808e-14  4.2471070939709504e-13  1.8184251542358204e-12  7.3823711909224005e-12  2.8702946190183957e-11  1.0759005405103485e-10  3.9053340671240642e-10  1.3756914828941089e-09  4.7024854145458070e-09  1.5568829641716519e-08  4.9770928871198281e-08  1.5308538208646169e-07  4.5143142472447378e-07  1.2723072983069242e-06  3.4186684357314163e-06  8.7426262021810126e-06  2.1259356459475033e-05  4.9149325567877467e-05  1.0808691279876669e-04  2.2635166551077457e-04  4.5205839887446316e-04  8.6252673047037751e-04  1.5752798452878093e-03  2.7594612567342068e-03  4.6457087328310269e-03  7.5319128653800055e-03  1.1782026884033792e-02  1.7815366369123505e-02  2.6084732824401439e-02  3.7043169360081445e-02  5.1101012912147893e-02  6.8576842141933922e-02  8.9647525201187933e-02  1.1430359935206891e-01  1.4231612374578062e-01  1.7322067772512759e-01  2.0632119257222203e-01  2.4071700573803884e-01  2.7534594270645218e-01  3.0905353788431139e-01  3.4064847672960180e-01  3.6901749430414543e-01  3.9310787598668590e-01  4.1218562509064982e-01  4.2545732860159108e-01  4.3298456833293258e-01  4.3388803482423732e-01  4.2988885646967251e-01  4.1851919821125116e-01  4.0547640672817392e-01  3.8282531461697250e-01  3.6519930796241912e-01  -2.9606667647264667e-15  -2.9606738121646475e-15  -2.9606594401452648e-15  -2.9606080852945147e-15  -2.9604699636844937e-15  -2.9600178759230259e-15  -2.9575282172198196e-15  -2.9408084095987933e-15  -2.8280036152161281e-15  -2.1145616971486223e-15  2.0460640733292072e-15  2.4431024484314667e-14  1.3583078824444666e-13  6.5094073756989229e-13  2.8764359920108759e-12  1.1917097393686294e-11  4.6685368124097375e-11  1.7412909304217175e-10  6.2207183986580611e-10  2.1386869132846530e-09  7.0976682683649823e-09  2.2764177867960410e-08  7.0520313379742164e-08  2.1062277489568140e-07  6.0494850913061811e-07  1.6663621203077881e-06  4.3911421598175116e-06  1.1048034541034998e-05  2.6504659256461337e-05  6.0593658210481176e-05  1.3201723625904708e-04  2.7429461804135416e-04  5.4409483858616358e-04  1.0319038961168062e-03  1.8743365707415819e-03  3.2665846771323648e-03  5.4726509582353582e-03  8.8303776610864082e-03  1.3748087466655177e-02  2.0690107666265087e-02  3.0149621875718530e-02  4.2609095928987331e-02  5.8490695368862429e-02  7.8101258487186700e-02  1.0157808413759366e-01  1.2884262793529022e-01  1.5956900828003742e-01  1.9317276016783416e-01  2.2882328938051769e-01  2.6547978011524953e-01  3.0194947941956451e-01  3.3695902662340099e-01  3.6924180155028025e-01  3.9760811369154270e-01  4.2105085046152935e-01  4.3873693029739358e-01  4.5020918771041196e-01  4.5505419562340932e-01  4.5366514799296004e-01  4.4561558378522975e-01  4.3290456722532145e-01  4.1340632265436161e-01  3.9327175463247577e-01  3.6389109895804567e-01  3.4245571441251327e-01  -3.1124264696811332e-15  -3.1123965874276599e-15  -3.1123181832209392e-15  -3.1121449411160544e-15  -3.1116749839448684e-15  -3.1094755842521490e-15  -3.0943984056504212e-15  -2.9854439588045542e-15  -2.2407032000909065e-15  2.4484070557477656e-15  2.9553210609083904e-14  1.7361323420194056e-13  8.7971321976372583e-13  4.0841016467840976e-12  1.7612595594874217e-11  7.1040142298940914e-11  2.6961339280019701e-10  9.6853236458443568e-10  3.3119383188752862e-09  1.0833868402475812e-08  3.4027189649835632e-08  1.0283877057626720e-07  2.9926302802322408e-07  8.3798203184550522e-07  2.2545325710042774e-06  5.8172628747633766e-06  1.4369752248884417e-05  3.3933957965596187e-05  7.6540830113929170e-05  1.6485498864115452e-04  3.3914489985173570e-04  6.6692954495219863e-04  1.2551388137542628e-03  2.2638542766375168e-03  3.9197442522781395e-03  6.5263719666210779e-03  1.0467912012931235e-02  1.6202739598688148e-02  2.4244061980872252e-02  3.5126287597469448e-02  4.9358019929107183e-02  6.7365071671326562e-02  8.9429243858134916e-02  1.1563030263295553e-01  1.4579921001596646e-01  1.7948999993126816e-01  2.1597580411724021e-01  2.5427160121008419e-01  2.9318304762092845e-01  3.3137694894306213e-01  3.6746746408249181e-01  4.0010688329235372e-01  4.2807842354811398e-01  4.5036551791995738e-01  4.6623318789793516e-01  4.7521331743715683e-01  4.7723944156942999e-01  4.7235587239275723e-01  4.6131264251339549e-01  4.4415443926273834e-01  4.2305261828641855e-01  3.9629959873418241e-01  3.7009912848607290e-01  3.3567047600039529e-01  3.1159512930802941e-01  -3.2724763415263099e-15  -3.2723611453619854e-15  -3.2721351089994957e-15  -3.2716385571922243e-15  -3.2698355743608301e-15  -3.2582669010027043e-15  -3.1699564428474153e-15  -2.5169974781214494e-15  1.9424025747401580e-15  2.9830646757138254e-14  1.8952799682935755e-13  1.0284263390347551e-12  5.0819525345709325e-12  2.3159609573265001e-11  9.7873307435652127e-11  3.8538969445357466e-10  1.4210948613277019e-09  4.9333099197771876e-09  1.6209081049257443e-08  5.0656037713463100e-08  1.5120118312531358e-07  4.3234473654828273e-07  1.1862969863952832e-06  3.1250776222019719e-06  7.9005340692484447e-06  1.9150789630965545e-05  4.4464187012742274e-05  9.8803409714387616e-05  2.1003122059257948e-04  4.2713046205118465e-04  8.3141037617556605e-04  1.5503686670919798e-03  2.7729485298611596e-03  4.7638273948717828e-03  7.8733552092960651e-03  1.2539153804099520e-02  1.9275510310991402e-02  2.8647744313183753e-02  4.1230694920200962e-02  5.7553114712998510e-02  7.8032616280800646e-02  1.0290831902944404e-01  1.3217992802951756e-01  1.6556223041064611e-01  2.0246276112886299e-01  2.4198779860994743e-01  2.8297832698943703e-01  3.2407367242199964e-01  3.6379700680060273e-01  4.0065387708743705e-01  4.3323420783608602e-01  4.6030596421216946e-01  4.8089579362690832e-01  4.9433870936329771e-01  5.0032206247798550e-01  4.9885023273696016e-01  4.9031154001814531e-01  4.7522108918975492e-01  4.5465547695891378e-01  4.2907532450625940e-01  4.0069339538593518e-01  3.6821217201279510e-01  3.3753263168329600e-01  3.0010143123784822e-01  2.7478763983585458e-01  -3.4412696852276724e-15  -3.4409653840892380e-15  -3.4403913476371340e-15  -3.4388844491398840e-15  -3.4310576298163108e-15  -3.3708893885521542e-15  -2.8922796938554021e-15  6.6137036504845250e-16  2.4819090471790190e-14  1.7479263791862280e-13  1.0257641149883604e-12  5.4468117260128658e-12  2.6526120113586177e-11  1.1902770663052595e-10  4.9390873053524782e-10  1.9026839630353055e-09  6.8343827125253605e-09  2.2998672253001334e-08  7.2865088483494783e-08  2.1839856177366890e-07  6.2201316004494402e-07  1.6894132877820252e-06  4.3872298869236152e-06  1.0910425005241162e-05  2.6000455764366465e-05  5.9379514694235937e-05  1.2993262292605213e-04  2.7235973486371454e-04  5.4691964575992100e-04  1.0524773945403926e-03  1.9422793442225596e-03  3.4407589128936798e-03  5.8584122378335570e-03  9.6007028949389502e-03  1.5166448973401020e-02  2.3131557022824774e-02  3.4115468460586169e-02  4.8730189140716924e-02  6.7514916037383202e-02  9.0862469807826751e-02  1.1894630916051600e-01  1.5165823304834403e-01  1.8856658203598903e-01  2.2890276418364980e-01  2.7158053101121071e-01  3.1524817346843353e-01  3.5836942674168820e-01  3.9932506893792702e-01  4.3652465476564439e-01  4.6851663035962571e-01  4.9408608788751301e-01  5.1233014495842766e-01  5.2270745852449652e-01  5.2505219775069778e-01  5.1957210568518220e-01  5.0678556466080626e-01  4.8752770188389871e-01  4.6272468168825398e-01  4.3368960697329978e-01  4.0118289752359287e-01  3.6730938878549568e-01  3.3112087302684667e-01  2.9790013079700084e-01  2.5967772520223620e-01  2.3452812119971067e-01  -3.6191986687946722e-15  -3.6184765376601859e-15  -3.6170292167542149e-15  -3.6119219035816630e-15  -3.5768546050413305e-15  -3.2838584502727336e-15  -9.2201676603447623e-16  1.6580861938302084e-14  1.3489797217128260e-13  8.6411293564538051e-13  4.9659367989552332e-12  2.6056368691238641e-11  1.2537471083351118e-10  5.5475688482240798e-10  2.2638904968134532e-09  8.5488892042057903e-09  2.9985190412915229e-08  9.8100553567736452e-08  3.0071981350823170e-07  8.6773240490041422e-07  2.3674689106768787e-06  6.1320731626362344e-06  1.5128833568203975e-05  3.5642706584184197e-05  8.0323687355583065e-05  1.7333320274315317e-04  3.5839660311572541e-04  7.1039359040408936e-04  1.3505597760090069e-03  2.4643733609975671e-03  4.3198521906365186e-03  7.2825575293172361e-03  1.1822504503569061e-02  1.8507869976667202e-02  2.7981221447914689e-02  4.0916082542582055e-02  5.7954797080773585e-02  7.9632333018236801e-02  1.0629414225003073e-01  1.3801868065702386e-01  1.7455606302877863e-01  2.1529325920132630e-01  2.5925330700308752e-01  3.0513168452450234e-01  3.5136799089064524e-01  3.9624628966905279e-01  4.3801367472918906e-01  4.7500439228332891e-01  5.0575651063499771e-01  5.2910946584028473e-01  5.4427390238718565e-01  5.5086825369804793e-01  5.4892256238371839e-01  5.3884794678873515e-01  5.2138901838005414e-01  4.9753535019231154e-01  4.6848259680089693e-01  4.3544035541268938e-01  3.9982159639867121e-01  3.6252937137386404e-01  3.2541825138022623e-01  2.8778846757137594e-01  2.5408418701218122e-01  2.1717207622699483e-01  1.9345422993635203e-01  -3.8064807578038319e-15  -3.8048303883824004e-15  -3.8010101753903132e-15  -3.7824044822266807e-15  -3.6313879438118047e-15  -2.3250395985198426e-15  8.2335336749925299e-15  8.6177665882664068e-14  6.1004367893972080e-13  3.8163975432355754e-12  2.1705062306605371e-11  1.1279869447434663e-10  5.3687526326222465e-10  2.3453067448746940e-09  9.4263161287295669e-09  3.4956881872831008e-08  1.2000305108744556e-07  3.8276098046214417e-07  1.1389600939997955e-06  3.1755374220221799e-06  8.3324142934640463e-06  2.0664375772657386e-05  4.8624861382616454e-05  1.0892273972275909e-04  2.3289274940375897e-04  4.7626658761131251e-04  9.3296010626402420e-04  1.7527427482562745e-03  3.1613857650440217e-03  5.4802596902259765e-03  9.1407549765722684e-03  1.4687860155023375e-02  2.2767265277247133e-02  3.4091795751683404e-02  4.9385830307666065e-02  6.9310240842595655e-02  9.4374598737687124e-02  1.2484702350785630e-01  1.6067423963081165e-01  2.0142454570373708e-01  2.4626429304334971e-01  2.9397439672046838e-01  3.4300804899565113e-01  3.9158511427668341e-01  4.3781364320663141e-01  4.7982538005683606e-01  5.1591057198876700e-01  5.4463794732590776e-01  5.6494819297709220e-01  5.7621303189864914e-01  5.7825660560759407e-01  5.7133993328617472e-01  5.5611414617087007e-01  5.3354764491740159e-01  5.0484318965472597e-01  4.7133497868930957e-01  4.3442632162380601e-01  3.9543671245715190e-01  3.5572014858094664e-01  3.1615580399845317e-01  2.7823364449921528e-01  2.4139279514729475e-01  2.0912545953025583e-01  1.7528609532371087e-01  1.5399636787958251e-01  -4.0029281563694618e-15  -3.9991925542986393e-15  -3.9885124329594410e-15  -3.9204200571119912e-15  -3.3171429393325822e-15  1.9719858929980575e-15  4.4665087829686794e-14  3.5843990945593873e-13  2.4555738139302377e-12  1.5207286437934192e-11  8.5808386650238483e-11  4.4211548200788059e-10  2.0833954815017371e-09  8.9951136669877068e-09  3.5656532961377177e-08  1.3008379635216288e-07  4.3801155570837473e-07  1.3656330123600381e-06  3.9568820472567585e-06  1.0697473063510967e-05  2.7099696800827442e-05  6.4608240527304971e-05  1.4557647741108098e-04  3.1123088815374512e-04  6.3353660952663096e-04  1.2314999882538820e-03  2.2914962660891243e-03  4.0896385419286214e-03  7.0122433870300066e-03  1.1568650252787914e-02  1.8389730515128613e-02  2.8205985763256589e-02  4.1801440192668328e-02  5.9943367988351301e-02  8.3292615770969095e-02  1.1230393580669416e-01  1.4712929871592850e-01  1.8753871572083458e-01  2.3287215746905612e-01  2.8203271772122046e-01  3.3352577812430401e-01  3.8554253740178923e-01  4.3608001737748864e-01  4.8308463137743185e-01 