<?xml version="1.0"?>
<VTKFile type="UnstructuredGrid"  version="0.1"  >
<UnstructuredGrid>
<Piece  NumberOfPoints="4225" NumberOfCells="8192">
<Points>
<DataArray  type="Float64"  NumberOfComponents="3"  format="ascii">0 0 0  0.015625 0 0  0.03125 0 0  0.046875 0 0  0.0625 0 0  0.078125 0 0  0.09375 0 0  0.109375 0 0  0.125 0 0  0.140625 0 0  0.15625 0 0  0.171875 0 0  0.1875 0 0  0.203125 0 0  0.21875 0 0  0.234375 0 0  0.25 0 0  0.265625 0 0  0.28125 0 0  0.296875 0 0  0.3125 0 0  0.328125 0 0  0.34375 0 0  0.359375 0 0  0.375 0 0  0.390625 0 0  0.40625 0 0  0.421875 0 0  0.4375 0 0  0.453125 0 0  0.46875 0 0  0.484375 0 0  0.5 0 0  0.515625 0 0  0.53125 0 0  0.546875 0 0  0.5625 0 0  0.578125 0 0  0.59375 0 0  0.609375 0 0  0.625 0 0  0.640625 0 0  0.65625 0 0  0.671875 0 0  0.6875 0 0  0.703125 0 0  0.71875 0 0  0.734375 0 0  0.75 0 0  0.765625 0 0  0.78125 0 0  0.796875 0 0  0.8125 0 0  0.828125 0 0  0.84375 0 0  0.859375 0 0  0.875 0 0  0.890625 0 0  0.90625 0 0  0.921875 0 0  0.9375 0 0  0.953125 0 0  0.96875 0 0  0.984375 0 0  1 0 0  0 0.015625 0  0.015625 0.015625 0  0.03125 0.015625 0  0.046875 0.015625 0  0.0625 0.015625 0  0.078125 0.015625 0  0.09375 0.015625 0  0.109375 0.015625 0  0.125 0.015625 0  0.140625 0.015625 0  0.15625 0.015625 0  0.171875 0.015625 0  0.1875 0.015625 0  0.203125 0.015625 0  0.21875 0.015625 0  0.234375 0.015625 0  0.25 0.015625 0  0.265625 0.015625 0  0.28125 0.015625 0  0.296875 0.015625 0  0.3125 0.015625 0  0.328125 0.015625 0  0.34375 0.015625 0  0.359375 0.015625 0  0.375 0.015625 0  0.390625 0.015625 0  0.40625 0.015625 0  0.421875 0.015625 0  0.4375 0.015625 0  0.453125 0.015625 0  0.46875 0.015625 0  0.484375 0.015625 0  0.5 0.015625 0  0.515625 0.015625 0  0.53125 0.015625 0  0.546875 0.015625 0  0.5625 0.015625 0  0.578125 0.015625 0  0.59375 0.015625 0  0.609375 0.015625 0  0.625 0.015625 0  0.640625 0.015625 0  0.65625 0.015625 0  0.671875 0.015625 0  0.6875 0.015625 0  0.703125 0.015625 0  0.71875 0.015625 0  0.734375 0.015625 0  0.75 0.015625 0  0.765625 0.015625 0  0.78125 0.015625 0  0.796875 0.015625 0  0.8125 0.015625 0  0.828125 0.015625 0  0.84375 0.015625 0  0.859375 0.015625 0  0.875 0.015625 0  0.890625 0.015625 0  0.90625 0.015625 0  0.921875 0.015625 0  0.9375 0.015625 0  0.953125 0.015625 0  0.96875 0.015625 0  0.984375 0.015625 0  1 0.015625 0  0 0.03125 0  0.015625 0.03125 0  0.03125 0.03125 0  0.046875 0.03125 0  0.0625 0.03125 0  0.078125 0.03125 0  0.09375 0.03125 0  0.109375 0.03125 0  0.125 0.03125 0  0.140625 0.03125 0  0.15625 0.03125 0  0.171875 0.03125 0  0.1875 0.03125 0  0.203125 0.03125 0  0.21875 0.03125 0  0.234375 0.03125 0  0.25 0.03125 0  0.265625 0.03125 0  0.28125 0.03125 0  0.296875 0.03125 0  0.3125 0.03125 0  0.328125 0.03125 0  0.34375 0.03125 0  0.359375 0.03125 0  0.375 0.03125 0  0.390625 0.03125 0  0.40625 0.03125 0  0.421875 0.03125 0  0.4375 0.03125 0  0.453125 0.03125 0  0.46875 0.03125 0  0.484375 0.03125 0  0.5 0.03125 0  0.515625 0.03125 0  0.53125 0.03125 0  0.546875 0.03125 0  0.5625 0.03125 0  0.578125 0.03125 0  0.59375 0.03125 0  0.609375 0.03125 0  0.625 0.03125 0  0.640625 0.03125 0  0.65625 0.03125 0  0.671875 0.03125 0  0.6875 0.03125 0  0.703125 0.03125 0  0.71875 0.03125 0  0.734375 0.03125 0  0.75 0.03125 0  0.765625 0.03125 0  0.78125 0.03125 0  0.796875 0.03125 0  0.8125 0.03125 0  0.828125 0.03125 0  0.84375 0.03125 0  0.859375 0.03125 0  0.875 0.03125 0  0.890625 0.03125 0  0.90625 0.03125 0  0.921875 0.03125 0  0.9375 0.03125 0  0.953125 0.03125 0  0.96875 0.03125 0  0.984375 0.03125 0  1 0.03125 0  0 0.046875 0  0.015625 0.046875 0  0.03125 0.046875 0  0.046875 0.046875 0  0.0625 0.046875 0  0.078125 0.046875 0  0.09375 0.046875 0  0.109375 0.046875 0  0.125 0.046875 0  0.140625 0.046875 0  0.15625 0.046875 0  0.171875 0.046875 0  0.1875 0.046875 0  0.203125 0.046875 0  0.21875 0.046875 0  0.234375 0.046875 0  0.25 0.046875 0  0.265625 0.046875 0  0.28125 0.046875 0  0.296875 0.046875 0  0.3125 0.046875 0  0.328125 0.046875 0  0.34375 0.046875 0  0.359375 0.046875 0  0.375 0.046875 0  0.390625 0.046875 0  0.40625 0.046875 0  0.421875 0.046875 0  0.4375 0.046875 0  0.453125 0.046875 0  0.46875 0.046875 0  0.484375 0.046875 0  0.5 0.046875 0  0.515625 0.046875 0  0.53125 0.046875 0  0.546875 0.046875 0  0.5625 0.046875 0  0.578125 0.046875 0  0.59375 0.046875 0  0.609375 0.046875 0  0.625 0.046875 0  0.640625 0.046875 0  0.65625 0.046875 0  0.671875 0.046875 0  0.6875 0.046875 0  0.703125 0.046875 0  0.71875 0.046875 0  0.734375 0.046875 0  0.75 0.046875 0  0.765625 0.046875 0  0.78125 0.046875 0  0.796875 0.046875 0  0.8125 0.046875 0  0.828125 0.046875 0  0.84375 0.046875 0  0.859375 0.046875 0  0.875 0.046875 0  0.890625 0.046875 0  0.90625 0.046875 0  0.921875 0.046875 0  0.9375 0.046875 0  0.953125 0.046875 0  0.96875 0.046875 0  0.984375 0.046875 0  1 0.046875 0  0 0.0625 0  0.015625 0.0625 0  0.03125 0.0625 0  0.046875 0.0625 0  0.0625 0.0625 0  0.078125 0.0625 0  0.09375 0.0625 0  0.109375 0.0625 0  0.125 0.0625 0  0.140625 0.0625 0  0.15625 0.0625 0  0.171875 0.0625 0  0.1875 0.0625 0  0.203125 0.0625 0  0.21875 0.0625 0  0.234375 0.0625 0  0.25 0.0625 0  0.265625 0.0625 0  0.28125 0.0625 0  0.296875 0.0625 0  0.3125 0.0625 0  0.328125 0.0625 0  0.34375 0.0625 0  0.359375 0.0625 0  0.375 0.0625 0  0.390625 0.0625 0  0.40625 0.0625 0  0.421875 0.0625 0  0.4375 0.0625 0  0.453125 0.0625 0  0.46875 0.0625 0  0.484375 0.0625 0  0.5 0.0625 0  0.515625 0.0625 0  0.53125 0.0625 0  0.546875 0.0625 0  0.5625 0.0625 0  0.578125 0.0625 0  0.59375 0.0625 0  0.609375 0.0625 0  0.625 0.0625 0  0.640625 0.0625 0  0.65625 0.0625 0  0.671875 0.0625 0  0.6875 0.0625 0  0.703125 0.0625 0  0.71875 0.0625 0  0.734375 0.0625 0  0.75 0.0625 0  0.765625 0.0625 0  0.78125 0.0625 0  0.796875 0.0625 0  0.8125 0.0625 0  0.828125 0.0625 0  0.84375 0.0625 0  0.859375 0.0625 0  0.875 0.0625 0  0.890625 0.0625 0  0.90625 0.0625 0  0.921875 0.0625 0  0.9375 0.0625 0  0.953125 0.0625 0  0.96875 0.0625 0  0.984375 0.0625 0  1 0.0625 0  0 0.078125 0  0.015625 0.078125 0  0.03125 0.078125 0  0.046875 0.078125 0  0.0625 0.078125 0  0.078125 0.078125 0  0.09375 0.078125 0  0.109375 0.078125 0  0.125 0.078125 0  0.140625 0.078125 0  0.15625 0.078125 0  0.171875 0.078125 0  0.1875 0.078125 0  0.203125 0.078125 0  0.21875 0.078125 0  0.234375 0.078125 0  0.25 0.078125 0  0.265625 0.078125 0  0.28125 0.078125 0  0.296875 0.078125 0  0.3125 0.078125 0  0.328125 0.078125 0  0.34375 0.078125 0  0.359375 0.078125 0  0.375 0.078125 0  0.390625 0.078125 0  0.40625 0.078125 0  0.421875 0.078125 0  0.4375 0.078125 0  0.453125 0.078125 0  0.46875 0.078125 0  0.484375 0.078125 0  0.5 0.078125 0  0.515625 0.078125 0  0.53125 0.078125 0  0.546875 0.078125 0  0.5625 0.078125 0  0.578125 0.078125 0  0.59375 0.078125 0  0.609375 0.078125 0  0.625 0.078125 0  0.640625 0.078125 0  0.65625 0.078125 0  0.671875 0.078125 0  0.6875 0.078125 0  0.703125 0.078125 0  0.71875 0.078125 0  0.734375 0.078125 0  0.75 0.078125 0  0.765625 0.078125 0  0.78125 0.078125 0  0.796875 0.078125 0  0.8125 0.078125 0  0.828125 0.078125 0  0.84375 0.078125 0  0.859375 0.078125 0  0.875 0.078125 0  0.890625 0.078125 0  0.90625 0.078125 0  0.921875 0.078125 0  0.9375 0.078125 0  0.953125 0.078125 0  0.96875 0.078125 0  0.984375 0.078125 0  1 0.078125 0  0 0.09375 0  0.015625 0.09375 0  0.03125 0.09375 0  0.046875 0.09375 0  0.0625 0.09375 0  0.078125 0.09375 0  0.09375 0.09375 0  0.109375 0.09375 0  0.125 0.09375 0  0.140625 0.09375 0  0.15625 0.09375 0  0.171875 0.09375 0  0.1875 0.09375 0  0.203125 0.09375 0  0.21875 0.09375 0  0.234375 0.09375 0  0.25 0.09375 0  0.265625 0.09375 0  0.28125 0.09375 0  0.296875 0.09375 0  0.3125 0.09375 0  0.328125 0.09375 0  0.34375 0.09375 0  0.359375 0.09375 0  0.375 0.09375 0  0.390625 0.09375 0  0.40625 0.09375 0  0.421875 0.09375 0  0.4375 0.09375 0  0.453125 0.09375 0  0.46875 0.09375 0  0.484375 0.09375 0  0.5 0.09375 0  0.515625 0.09375 0  0.53125 0.09375 0  0.546875 0.09375 0  0.5625 0.09375 0  0.578125 0.09375 0  0.59375 0.09375 0  0.609375 0.09375 0  0.625 0.09375 0  0.640625 0.09375 0  0.65625 0.09375 0  0.671875 0.09375 0  0.6875 0.09375 0  0.703125 0.09375 0  0.71875 0.09375 0  0.734375 0.09375 0  0.75 0.09375 0  0.765625 0.09375 0  0.78125 0.09375 0  0.796875 0.09375 0  0.8125 0.09375 0  0.828125 0.09375 0  0.84375 0.09375 0  0.859375 0.09375 0  0.875 0.09375 0  0.890625 0.09375 0  0.90625 0.09375 0  0.921875 0.09375 0  0.9375 0.09375 0  0.953125 0.09375 0  0.96875 0.09375 0  0.984375 0.09375 0  1 0.09375 0  0 0.109375 0  0.015625 0.109375 0  0.03125 0.109375 0  0.046875 0.109375 0  0.0625 0.109375 0  0.078125 0.109375 0  0.09375 0.109375 0  0.109375 0.109375 0  0.125 0.109375 0  0.140625 0.109375 0  0.15625 0.109375 0  0.171875 0.109375 0  0.1875 0.109375 0  0.203125 0.109375 0  0.21875 0.109375 0  0.234375 0.109375 0  0.25 0.109375 0  0.265625 0.109375 0  0.28125 0.109375 0  0.296875 0.109375 0  0.3125 0.109375 0  0.328125 0.109375 0  0.34375 0.109375 0  0.359375 0.109375 0  0.375 0.109375 0  0.390625 0.109375 0  0.40625 0.109375 0  0.421875 0.109375 0  0.4375 0.109375 0  0.453125 0.109375 0  0.46875 0.109375 0  0.484375 0.109375 0  0.5 0.109375 0  0.515625 0.109375 0  0.53125 0.109375 0  0.546875 0.109375 0  0.5625 0.109375 0  0.578125 0.109375 0  0.59375 0.109375 0  0.609375 0.109375 0  0.625 0.109375 0  0.640625 0.109375 0  0.65625 0.109375 0  0.671875 0.109375 0  0.6875 0.109375 0  0.703125 0.109375 0  0.71875 0.109375 0  0.734375 0.109375 0  0.75 0.109375 0  0.765625 0.109375 0  0.78125 0.109375 0  0.796875 0.109375 0  0.8125 0.109375 0  0.828125 0.109375 0  0.84375 0.109375 0  0.859375 0.109375 0  0.875 0.109375 0  0.890625 0.109375 0  0.90625 0.109375 0  0.921875 0.109375 0  0.9375 0.109375 0  0.953125 0.109375 0  0.96875 0.109375 0  0.984375 0.109375 0  1 0.109375 0  0 0.125 0  0.015625 0.125 0  0.03125 0.125 0  0.046875 0.125 0  0.0625 0.125 0  0.078125 0.125 0  0.09375 0.125 0  0.109375 0.125 0  0.125 0.12
[...]
<PointData  Scalars="f_14"> 
<DataArray  type="Float64"  Name="f_14"  format="ascii">2.1265436089060711e-12  2.0853754218327759e-12  1.8213201362096566e-12  1.6075158694686831e-12  1.4134514467915207e-12  1.2356273941558239e-12  1.0757408416238798e-12  9.3202087210281344e-13  8.0358929492794044e-13  6.8940260844075419e-13  5.8838951110865757e-13  4.9949466511291612e-13  4.2167154554994384e-13  3.5390063892108069e-13  2.9519837834398886e-13  2.4462514261104319e-13  2.0129141679079554e-13  1.6436193025294997e-13  1.3305840762956765e-13  1.0666184175992021e-13  8.4515740521341915e-14  6.6031606346591502e-14  5.0696357836479365e-14  3.8078530047779961e-14  2.7827482220933231e-14  1.9660235427223233e-14  1.3335602286308618e-14  8.6230247315974893e-15  5.2787161615410514e-15  3.0396246691093770e-15  1.6368146613549929e-15  8.1995329156814705e-16  3.8024576545293769e-16  1.6238010545828302e-16  6.3349159346416734e-17  2.2160806285789040e-17  6.5183410688981695e-18  1.1026743272785071e-18  -6.0435404054706540e-19  -1.0936832038553867e-18  -1.2211334674007844e-18  -1.2512723629156091e-18  -1.2577389543190176e-18  -1.2589971179355904e-18  -1.2592189864485639e-18  -1.2592544319316397e-18  -1.2592595601447875e-18  -1.2592602318295634e-18  -1.2592603114515323e-18  -1.2592603199915600e-18  -1.2592603208201771e-18  -1.2592603208928928e-18  -1.2592603208986636e-18  -1.2592603208990769e-18  -1.2592603208991037e-18  -1.2592603208991045e-18  -1.2592603208991043e-18  -1.2592603208991033e-18  -1.2592603208991016e-18  -1.2592603208991006e-18  -1.2592603208991000e-18  -1.2592603208990989e-18  -1.2592603208990985e-18  -1.2592603208990967e-18  -1.2592603208990941e-18  6.0632922031313360e-12  5.9510806826510116e-12  5.2497928166547990e-12  4.7493067747754926e-12  4.2470763669723427e-12  3.7867444991311383e-12  3.3611846046898934e-12  2.9697475072191321e-12  2.6118265135791122e-12  2.2860681305793881e-12  1.9911306999866866e-12  1.7254818395380132e-12  1.4874738295446796e-12  1.2753744361373910e-12  1.0873935993096434e-12  9.2171137602600699e-13  7.7649927284188423e-13  6.4993486351036034e-13  5.4020859253399277e-13  4.4552638664842807e-13  3.6411909565459517e-13  2.9427606488020447e-13  2.3441687097258537e-13  1.8319506853017140e-13  1.3959548301734887e-13  1.0296424707763509e-13  7.2925339672871592e-14  4.9193888108235664e-14  3.1362675019061899e-14  1.8764114067754763e-14  1.0470977400062539e-14  5.4214642623382811e-15  2.5929652299095240e-15  1.1412398358969177e-15  4.6057551448900726e-16  1.6968434992997532e-16  5.6562744387986401e-17  1.6584871978908275e-17  3.7580146224305725e-18  2.4593618047663890e-20  -9.6056921838990124e-19  -1.1961303006307777e-18  -1.2471471533487179e-18  -1.2571515312793419e-18  -1.2589273965150197e-18  -1.2592126767195933e-18  -1.2592541426045735e-18  -1.2592595951469705e-18  -1.2592602436921924e-18  -1.2592603134624561e-18  -1.2592603202506619e-18  -1.2592603208479286e-18  -1.2592603208954498e-18  -1.2592603208988687e-18  -1.2592603208990902e-18  -1.2592603208991025e-18  -1.2592603208991019e-18  -1.2592603208991010e-18  -1.2592603208990989e-18  -1.2592603208990981e-18  -1.2592603208990962e-18  -1.2592603208990948e-18  -1.2592603208990942e-18  -1.2592603208990927e-18  -1.2592603208990933e-18  3.6657568966916173e-11  3.6492585625651092e-11  3.3067011592159816e-11  3.0470365656479198e-11  2.7819580315047075e-11  2.5325814715040947e-11  2.2949626016470355e-11  2.0705816697190976e-11  1.8596558758099928e-11  1.6624192952762384e-11  1.4789628258150661e-11  1.3092333337361300e-11  1.1530561742338988e-11  1.0101403722909766e-11  8.8009079233299913e-12  7.6241839497270532e-12  6.5654787115800840e-12  5.6182025164358658e-12  4.7748948477985186e-12  4.0271719313555942e-12  3.3657850976587193e-12  2.7809957097116904e-12  2.2634369488124301e-12  1.8053966327604732e-12  1.4020700062133438e-12  1.0520545213920750e-12  7.5651136388487640e-13  5.1707288080066350e-13  3.3336454686983184e-13  2.0134613680757759e-13  1.1325445351773769e-13  5.9032539815495139e-14  2.8395873125704789e-14  1.2562132168278048e-14  5.0966203639334596e-15  1.8916579305654283e-15  6.4071507600247249e-16  1.9729236473018180e-16  5.4669857008337434e-17  1.3073887391774792e-17  2.0795270152050073e-18  -5.5287008624158471e-19  -1.1236087658416290e-18  -1.2356290820970519e-18  -1.2555276226307666e-18  -1.2587259319282610e-18  -1.2591910038450498e-18  -1.2592521767942481e-18  -1.2592594544166296e-18  -1.2592602374350835e-18  -1.2592603136215296e-18  -1.2592603203247742e-18  -1.2592603208580852e-18  -1.2592603208964511e-18  -1.2592603208989450e-18  -1.2592603208990906e-18  -1.2592603208990966e-18  -1.2592603208990956e-18  -1.2592603208990935e-18  -1.2592603208990915e-18  -1.2592603208990890e-18  -1.2592603208990873e-18  -1.2592603208990827e-18  -1.2592603208990763e-18  -1.2592603208990706e-18  2.2346799698954804e-10  2.2411718295509457e-10  2.0695411341962762e-10  1.9388141715633751e-10  1.8016129925940837e-10  1.6690786570731226e-10  1.5395616078165449e-10  1.4141474804836570e-10  1.2932502502505620e-10  1.1773528566348357e-10  1.0668451688619432e-10  9.6205115160205628e-11  8.6322328565761352e-11  7.7054201481127312e-11  6.8411602847811551e-11  6.0398157363257628e-11  5.3009944738968837e-11  4.6234722203783599e-11  4.0050595740381411e-11  3.4424585307500334e-11  2.9312440917386526e-11  2.4661877452940548e-11  2.0421050510292209e-11  1.6551655842981962e-11  1.3042005907140209e-11  9.9124745198335776e-12  7.2071694794323790e-12  4.9724188982708618e-12  3.2309116514124426e-12  1.9640068711193997e-12  1.1105539568568602e-12  5.8134447557773515e-13  2.8060976515842855e-13  1.2448954272642162e-13  5.0624789178320132e-14  1.8829381580066591e-14  6.3935617088176310e-15  1.9785194790483140e-15  5.5681382633126645e-16  1.4182782158498296e-16  3.2080673915269161e-17  5.7951804937729724e-18  9.5371175379281923e-20  -1.0233165956033075e-18  -1.2220016841397533e-18  -1.2539280897043791e-18  -1.2585689481550977e-18  -1.2591791282386567e-18  -1.2592516867060411e-18  -1.2592594896271124e-18  -1.2592602484535998e-18  -1.2592603151847151e-18  -1.2592603204911796e-18  -1.2592603208727439e-18  -1.2592603208975518e-18  -1.2592603208990091e-18  -1.2592603208990846e-18  -1.2592603208990858e-18  -1.2592603208990837e-18  -1.2592603208990813e-18  -1.2592603208990785e-18  -1.2592603208990763e-18  -1.2592603208990717e-18  -1.2592603208990690e-18  -1.2592603208990650e-18  1.2606817676355779e-09  1.2724696282541450e-09  1.1957475189823853e-09  1.1380288345323370e-09  1.0749350859946247e-09  1.0124063610289489e-09  9.4958442126817664e-10  8.8710081108658575e-10  8.2525344193705220e-10  7.6439709959670920e-10  7.0485382943891915e-10  6.4692738451622765e-10  5.9089580890496770e-10  5.3700874196740055e-10  4.8548373581004624e-10  4.3650156826502331e-10  3.9019878874184050e-10  3.4665543966481160e-10  3.0587730013319996e-10  2.6777690182238097e-10  2.3216620417878929e-10  1.9878162314569129e-10  1.6735915259183910e-10  1.3775460224514531e-10  1.1006592127374851e-10  8.4685913001113030e-11  6.2226215001293692e-11  4.3315754272053846e-11  2.8354816691226227e-11  1.7342140019577578e-11  9.8554108813605456e-12  5.1801122438817185e-12  2.5086639281018168e-12  1.1159081807956878e-12  4.5476412335308252e-13  1.6943518105590708e-13  5.7613877758555756e-14  1.7853548273374562e-14  5.0354266184146567e-15  1.2907692215596332e-15  2.9988308851949799e-16  6.2469517054845713e-17  1.0978497155475028e-17  8.7205959164615534e-19  -9.2275833670689103e-19  -1.2111144294111619e-18  -1.2530196870478621e-18  -1.2585276941527794e-18  -1.2591824407506664e-18  -1.2592528257178688e-18  -1.2592596679427569e-18  -1.2592602694141766e-18  -1.2592603172251901e-18  -1.2592603206618395e-18  -1.2592603208852162e-18  -1.2592603208983431e-18  -1.2592603208990403e-18  -1.2592603208990707e-18  -1.2592603208990700e-18  -1.2592603208990671e-18  -1.2592603208990644e-18  -1.2592603208990615e-18  -1.2592603208990602e-18  -1.2592603208990584e-18  -1.2592603208990594e-18  6.5579706397467750e-09  6.6596904681498675e-09  6.3627149209964137e-09  6.1464371570293383e-09  5.8960795154880521e-09  5.6405527659016477e-09  5.3750854219396746e-09  5.1027394619394546e-09  4.8249096880343795e-09  4.5434191402748832e-09  4.2600348793880903e-09  3.9765456893695286e-09  3.6947171505734642e-09  3.4162705068123228e-09  3.1428505435654488e-09  2.8759811050919602e-09  2.6169927360534980e-09  2.3669051729436188e-09  2.1262587563376515e-09  1.8949307109601456e-09  1.6720462871594254e-09  1.4561629278382403e-09  1.2458833260458037e-09  1.0408624301271781e-09  8.4284880278261528e-10  6.5615022177181271e-10  4.8700932579104145e-10  3.4189667255207153e-10  2.2539317162759096e-10  1.3865679508266179e-10  7.9173213834968450e-11  4.1775616964341129e-11  2.0294876859587137e-11  9.0503922238841736e-12  3.6957293746023718e-12  1.3791455390639747e-12  4.6954385539059190e-13  1.4564647389992004e-13  4.1112981835101036e-14  1.0550535769772101e-14  2.4588555372619489e-15  5.1943565956906452e-16  9.8731467159203299e-17  1.6153689840788708e-17  1.4895302681056213e-18  -8.6605807663625994e-19  -1.2083075529732215e-18  -1.2532804716014561e-18  -1.2586248516958178e-18  -1.2591991834678907e-18  -1.2592549965304015e-18  -1.2592599012092889e-18  -1.2592602909592866e-18  -1.2592603189662188e-18  -1.2592603207861483e-18  -1.2592603208930911e-18  -1.2592603208987722e-18  -1.2592603208990426e-18  -1.2592603208990517e-18  -1.2592603208990499e-18  -1.2592603208990467e-18  -1.2592603208990436e-18  -1.2592603208990399e-18  -1.2592603208990372e-18  -1.2592603208990332e-18  3.1499645365480152e-08  3.2174017749512796e-08  3.1224096471814993e-08  3.0587403029862088e-08  2.9772081169689895e-08  2.8904825739644211e-08  2.7960186674867935e-08  2.6950306267680144e-08  2.5879383285463112e-08  2.4754260097724925e-08  2.3581943297737270e-08  2.2370071754130305e-08  2.1126711073821395e-08  1.9860263877824767e-08  1.8579293918975596e-08  1.7292237605148372e-08  1.6006882536173488e-08  1.4729475837194615e-08  1.3463410700063334e-08  1.2207761479715082e-08  1.0956511694612956e-08  9.6998576161104857e-09  8.4288219338771837e-09  7.1429654710014023e-09  5.8584831885201927e-09  4.6119932452782890e-09  3.4559785786144871e-09  2.4457796466924092e-09  1.6231557493874243e-09  1.0040249746653642e-09  5.7587813848508516e-10  3.0497229532033517e-10  1.4859594668379478e-10  6.6423295031712008e-11  2.7175503541477320e-11  1.0156374160720893e-11  3.4618741212590495e-12  1.0747843937462794e-12  3.0359185155573107e-13  7.7949652786548190e-14  1.8177868552260407e-14  3.8469923781706775e-15  7.3775452179680138e-16  1.2742858174324141e-16  1.9052487076427400e-17  1.6456840202771667e-18  -8.8291339287412745e-19  -1.2151034482639473e-18  -1.2545691178826158e-18  -1.2588091120871162e-18  -1.2592210362918475e-18  -1.2592572250945515e-18  -1.2592601001013120e-18  -1.2592603066476687e-18  -1.2592603200666355e-18  -1.2592603208550467e-18  -1.2592603208969357e-18  -1.2592603208989467e-18  -1.2592603208990317e-18  -1.2592603208990330e-18  -1.2592603208990301e-18  -1.2592603208990280e-18  -1.2592603208990255e-18  -1.2592603208990230e-18  -1.2592603208990191e-18  1.3992354288646178e-07  1.4370390436389816e-07  1.4152640703225749e-07  1.4046210838528183e-07  1.3859872273632307e-07  1.3643568926868722e-07  1.3384812359604339e-07  1.3087407023066189e-07  1.2751606821529822e-07  1.2379003828570051e-07  1.1971365664063643e-07  1.1530905219808282e-07  1.1060206475604610e-07  1.0562207591318290e-07  1.0040127962694215e-07  9.4973137068299000e-08  8.9369166043658650e-08  8.3613074217758512e-08  7.7711827758781043e-08  7.1645478406580425e-08  6.5361591452899304e-08  5.8783957343477937e-08  5.1844406994396154e-08  4.4536651559574597e-08  3.6973653295243911e-08  2.9415937518409816e-08  2.2242160520647710e-08  1.5860098485604732e-08  1.0591819379750339e-08  6.5855576589661819e-09  3.7932107090030286e-09  2.0156877289446686e-09  9.8485544929072659e-10  4.4121804437112113e-10  1.8083491997101278e-10  6.7678756460609047e-11  2.3093926387664685e-11  7.1757394267305288e-12  2.0281454785367066e-12  5.2096644234679363e-13  1.2152708916420383e-13  2.5728002646704038e-14  4.9399157709274440e-15  8.5912532031174824e-16  1.3452562790847118e-16  1.8157193914429155e-17  1.2557156223625788e-18  -9.6424246324547773e-19  -1.2279249328871654e-18  -1.2562471061192090e-18  -1.2589980311407628e-18  -1.2592396553500774e-18  -1.2592588472518294e-18  -1.2592602257959446e-18  -1.2592603153447287e-18  -1.2592603206054768e-18  -1.2592603208849851e-18  -1.2592603208984157e-18  -1.2592603208989987e-18  -1.2592603208990209e-18  -1.2592603208990201e-18  -1.2592603208990203e-18  -1.2592603208990203e-18  -1.2592603208990214e-18  -1.2592603208990238e-18  5.7565188460494606e-07  5.9424908150626028e-07  5.9333396745442891e-07  5.9604650352126907e-07  5.9567691494970125e-07  5.9399240874194066e-07  5.9044039898514654e-07  5.8510408576042596e-07  5.7791857738026290e-07  5.6887560937435384e-07  5.5797381609610413e-07  5.4523250036441680e-07  5.3068947108806653e-07  5.1440162825194368e-07  4.9644239552022527e-07  4.7689410285940178e-07  4.5582990980077951e-07  4.3327884033560065e-07  4.0917105700216330e-07  3.8327445964790216e-07  3.5515911526559060e-07  3.2425076429634107e-07  2.9003030534502151e-07  2.5237499984686715e-07  2.1192765073243084e-07  1.7028927573267240e-07  1.2985137970730090e-07  9.3249080772156494e-08  6.2639800167521319e-08  3.9134470809471790e-08  2.2629660644496536e-08  1.2063658843035332e-08  5.9094611382908812e-09  2.6529458447324844e-09  1.0891169117423684e-09  4.0814029760836198e-10  1.3940957719852471e-10  4.3350362944310117e-11  1.2259346697793353e-11  3.1502575310418529e-12  7.3505153528868012e-13  1.5563932152585904e-13  2.9889648592964402e-14  5.2032793592155146e-15  8.2003142671748319e-16  1.1616374539037870e-16  1.3947720952760749e-17  5.2425529900454880e-19  -1.0698596823585761e-18  -1.2410508767534760e-18  -1.2576755216198791e-18  -1.2591354746811519e-18  -1.2592514192746004e-18  -1.2592597464762779e-18  -1.2592602873528049e-18  -1.2592603191260908e-18  -1.2592603208142197e-18  -1.2592603208953427e-18  -1.2592603208988683e-18  -1.2592603208990068e-18  -1.2592603208990134e-18  -1.2592603208990149e-18  -1.2592603208990134e-18  -1.2592603208990157e-18  -1.2592603208990159e-18  2.1963614703467127e-06  2.2781680051938375e-06  2.3038062596504008e-06  2.3402908479996723e-06  2.3665692876496607e-06  2.3882199671564914e-06  2.4030630067636830e-06  2.4111431999802075e-06  2.4119335482275231e-06  2.4051092781058906e-06  2.3903534414600736e-06  2.3674179880316850e-06  2.3361180377056154e-06  2.2963383304028314e-06  2.2480237490585058e-06  2.1911419814330708e-06  2.1255873458579531e-06  2.0509883169540525e-06  1.9664008404727935e-06  1.8699483692321193e-06  1.7586147731919553e-06  1.6285401991764846e-06  1.4761515125927666e-06  1.3001178572062474e-06  1.1035001939516545e-06  8.9493654739402206e-07  6.8779901204580322e-07  4.9717522290730081e-07  3.3579297894184174e-07  2.1072402176374279e-07  1.2229532914430710e-07  6.5386990907357527e-08  3.2106605460453761e-08  1.4441251758388348e-08  5.9376033691343586e-09  2.2277425199093299e-09  7.6163849304974664e-10  2.3700147475763708e-10  6.7057170079704326e-11  1.7237528110327623e-11  4.0229203429365264e-12  8.5190907917918971e-13  1.6361299386437027e-13  2.8485720016836293e-14  4.4936573259852899e-15  6.4131515623304158e-16  8.1945739983231266e-17  8.4977162947327143e-18  -2.2327903008894204e-19  -1.1596731636891994e-18  -1.2505942061260388e-18  -1.2585777005239462e-18  -1.2592116533661725e-18  -1.2592571805176904e-18  -1.2592601375025231e-18  -1.2592603112061481e-18  -1.2592603204353929e-18  -1.2592603208789353e-18  -1.2592603208982166e-18  -1.2592603208989748e-18  -1.2592603208990010e-18  -1.2592603208990010e-18  -1.2592603208990039e-18  -1.2592603208990024e-18  -1.2592603208990035e-18  7.7816833139452086e-06  8.1070253836729354e-06  8.2948793330307628e-06  8.5124476875979467e-06  8.7016673138057845e-06  8.8780309749128460e-06  9.0339392521268090e-06  9.1687175101132604e-06  9.2796715437126809e-06  9.3647141958335755e-06  9.4216715008633607e-06  9.4485173025035676e-06  9.4433539840890342e-06  9.4044412057472571e-06  9.3301503659807908e-06  9.2187790920739414e-06  9.0680659205022656e-06  8.8742086659746648e-06  8.6302869250101763e-06  8.3243914394083362e-06  7.9385124619535682e-06  7.4499953592785718e-06  6.8373093848607582e-06  6.0901584769405940e-06  5.2207756550386285e-06  4.2704794380678958e-06  3.3059400165378400e-06  2.4041947894507391e-06  1.6319257971883216e-06  1.0283004656814487e-06  5.9877554934077609e-07  3.2101085491989844e-07  1.5796815365135815e-07  7.1176744096815363e-08  2.9305275503382530e-08  1.1007035788399740e-08  3.7663100689347979e-09  1.1727058933627418e-09  3.3195440569965759e-10  8.5357297426179220e-11  1.9924533546611260e-11  4.2196823701292061e-12  8.1042522637364597e-13  1.4109653090743688e-13  2.2260447813339855e-14  3.1808204456950139e-15  4.1072535969831688e-16  4.7045359507213210e-17  3.8689888693072336e-18  -7.6634779222896717e-19  -1.2163710368670882e-18  -1.2558822208185392e-18  -1.2590194886230512e-18  -1.2592447807642240e-18  -1.2592594133358627e-18  -1.2592602729291380e-18  -1.2592603186043268e-18  -1.2592603207996564e-18  -1.2592603208951033e-18  -1.2592603208988556e-18  -1.2592603208989870e-18  -1.2592603208989895e-18  -1.2592603208989889e-18  -1.2592603208989862e-18  -1.2592603208989787e-18  2.5632182271041201e-05  2.6810367291792391e-05  2.7726188411744402e-05  2.8716186073236654e-05  2.9644590506853433e-05  3.0548073442054921e-05  3.1403485057264121e-05  3.2206538514386176e-05  3.2946521434598949e-05  3.3614214204145639e-05  3.4199643715973770e-05  3.4692863026960761e-05  3.5083856894443039e-05  3.5362610115970594e-05  3.5518852400889166e-05  3.5541158161781127e-05  3.5414656109537214e-05  3.5116418756647604e-05  3.4608035653135986e-05  3.3826728320782452e-05  3.2679858260078333e-05  3.1051265605808077e-05  2.8827737723797605e-05  2.5946104876552147e-05  2.2446707216376605e-05  1.8505913719407251e-05  1.4421568087565228e-05  1.0546003373852615e-05  7.1911365125335494e-06  4.5481675714249439e-06  2.6564272804506905e-06  1.4276432631828564e-06  7.0392601900886144e-07  3.1767274073387871e-07  1.3095680964423555e-07  4.9234924180652473e-08  1.6859306879837396e-08  5.2523099278940349e-09  1.4873332002067654e-09  3.8254475762314295e-10  8.9309007500664483e-11  1.8915395162347322e-11  3.6328602217813870e-12  6.3245939900780945e-13  9.9776724593344685e-14  1.4259439991814044e-14  1.8448603023164949e-15  2.1517023601550354e-16  2.1715423004564781e-17  9.4879425157180326e-19  -1.0671468129195005e-18  -1.2441294930244127e-18  -1.2581816232120790e-18  -1.2591907143537185e-18  -1.2592562555391308e-18  -1.2592601059996015e-18  -1.2592603106176544e-18  -1.2592603204538142e-18  -1.2592603208815456e-18  -1.2592603208983691e-18  -1.2592603208989637e-18  -1.2592603208989785e-18  -1.2592603208989731e-18  -1.2592603208989639e-18  -1.2592603208989533e-18  7.8582605119635349e-05  8.2487213365704687e-05  8.6130235499441905e-05  8.9939516229474594e-05  9.3670875825190966e-05  9.7392089597346773e-05  1.0104280092922672e-04  1.0460597319528520e-04  1.0804654041663474e-04  1.1133218923675822e-04  1.1442685775650834e-04  1.1729296241490606e-04  1.1989091425132938e-04  1.2217908964035992e-04  1.2411248907223142e-04  1.2563867251252461e-04  1.2668782896748466e-04  1.2715300412606729e-04  1.2685826054119261e-04  1.2552026396439305e-04  1.2272349694126785e-04  1.1794465280001903e-04  1.1066180887679520e-04  1.0055197244631795e-04  8.7718946327159039e-05  7.2837771191340775e-05  5.7104932034200416e-05  4.1968340888056439e-05  2.8735521943278581e-05  1.8235516017788433e-05  1.0679840230930182e-05  5.7523183780529619e-06  2.8412968776425077e-06  1.2840388337279173e-06  5.2991199801991110e-07  1.9939636807307436e-07  6.8322090986442583e-08  2.1294811873790304e-08  6.0321405272455211e-09  1.5517942818681319